# vtk DataFile Version 2.0
VTK LEGACY FILE FORMAT ASCII - tetrahedral sample file for H5FED test
ASCII
DATASET UNSTRUCTURED_GRID

POINTS 8 DOUBLE
0.0 0.0 0.0
0.0 0.5 0.5
0.0 1.0 0.0
0.5 0.5 0.0
0.0 0.0 1.0
0.5 0.0 0.5
0.5 0.0 0.0
1.0 0.0 0.0

CELLS 5 25
4	0  1  2  3 
4	0  4  1  5 
4	0  5  1  3 
4	0  6  5  3 
4	6  5  3  7 

CELL_TYPES 5
10
10
10
10
10

CELL_DATA 5
SCALARS cell_attribute_data float 1
LOOKUP_TABLE default
0
1
2
3
4
