<VTKFile type="UnstructuredGrid" version="0.1" byte_order="LittleEndian">
  <UnstructuredGrid>
    <Piece NumberOfPoints="756" NumberOfCells="3000">
      <PointData Scalars="Phase1::Pressure" Vectors="Phase1::DarcyVelocity">
        <DataArray type="Float64" Name="Phase1::Pressure" format="ascii" RangeMin="-4.6916376758" RangeMax="5.328768021">
          5.3054435622 5.3227019924 5.3226326812 5.326497191 -4.6700020266 -4.681743848
          -4.685598367 -4.6783434494 5.3066509858 5.3113636343 5.3174412635 5.321762672
          5.3235832058 5.3260102207 5.327850592 5.3282366818 5.3067311167 5.311588044
          5.3182047708 5.3231173053 5.3251015041 5.3265655588 5.3273275744 5.3274243462
          -4.6706123931 -4.6729652036 -4.6779704349 -4.6810026432 -4.6836090056 -4.6846126166
          -4.6881155124 -4.6882822474 -4.6888294567 -4.6897653075 -4.6855059095 -4.6803785409
          -4.6784097013 -4.6760277564 -4.6721677635 -4.6704412555 4.7552879341 4.2049205285
          3.6544165847 3.1039234581 2.5536950005 2.0062957641 1.501810522 0.99827977682
          0.49512061712 -0.0080141533986 -0.51133380972 -1.0149187071 -1.5186693547 -1.9689809965
          -2.4191889593 -2.8694197215 -3.3196507012 -3.7698448787 -4.219969153 4.7725154345
          4.2219557177 3.6708083005 3.1186581538 2.5647358091 2.0076397195 1.5057528822
          1.0045228549 0.50337994109 0.0024926450098 -0.49813968343 -0.998403461 -1.4980134613
          -1.9745395037 -2.4272109928 -2.8790833037 -3.3303294703 -3.7811123009 -4.231556529
          4.7763308704 4.2258755787 3.6750327616 3.123618185 2.5713124357 2.0175742151
          1.5081405488 1.0048929385 0.50237450796 0.00037622221725 -0.50137526539 -1.0031940013
          -1.5054761954 -1.9731811155 -2.4277431385 -2.8810076936 -3.3332395315 -3.7846561812
          -4.2354132561 4.7724327029 4.2218396705 3.6706221574 3.1183272441 2.5641014649
          2.0063589153 1.5046559201 1.0032394385 0.50145512048 -0.00083103868947 -0.50404405147
          -1.0089862941 -1.51707803 -1.9714050049 -2.4235880403 -2.8754172978 -3.326777556
          -3.7776943249 -4.2282119268 5.3087856913 5.31487822 5.3216396839 5.3250996563
          5.3148988231 5.3213367997 5.32630486 5.3275010222 5.3214905945 5.3261626494
          5.3287409255 5.328768021 5.3250683849 5.3274866081 5.328539814 5.328599811
          4.7563720992 4.2055944795 3.654292733 3.1024300328 2.5499612736 1.9968494188
          1.4968860714 0.99625181642 0.49496019253 -0.0070456518037 -0.50992524931 -1.0139758418
          -1.5196906088 -1.9690525028 -2.4191057913 -2.8694720492 -3.3199130356 -3.7702933564
          -4.2205387535 4.7610866069 4.210253673 3.6587818074 3.1065241833 2.5532534289
          1.9986450294 1.4997858442 1.0000516112 0.49968815403 -0.0012141411837 -0.50271700062
          -1.0050640174 -1.5087524624 -1.9656444967 -2.418051951 -2.8699332848 -3.3213218835
          -3.7722652696 -4.2228047219 4.7672619152 4.216649607 3.6654850651 3.1135366807
          2.5604014531 2.0054052018 1.5048588958 1.004420421 0.50401022895 0.0037698657406
          -0.49608855485 -0.99535478336 -1.4936295479 -1.9687801059 -2.4225156886 -2.8748729967
          -3.3263528457 -3.7772554358 -4.2277604279 4.7717473314 4.2215360582 3.6710977935
          3.120370788 2.5692702353 2.0177146517 1.5065013734 1.0040454056 0.50216783533
          0.00040801651901 -0.50166412998 -1.0045708504 -1.5090522403 -1.97268262 -2.4264049322
          -2.8785731693 -3.3298376974 -3.7805552343 -4.2309152671 4.7751597017 4.2252856372
          3.6754967152 3.125824226 2.5763299532 2.0271444603 1.5062592752 1.0043069729
          0.50317379218 0.0025843488984 -0.49760283925 -0.9973804796 -1.4966450374 -1.9806790023
          -2.4321512939 -2.8828866853 -3.3332619302 -3.7834563124 -4.233557729 4.7765192684
          4.2263803237 3.6760814479 3.1254966203 2.5744159758 2.0225060498 1.5056141533
          1.0030875394 0.50173752639 0.00097320298597 -0.49956407412 -1.0001248691 -1.5010039186
          -1.9748197632 -2.4288202445 -2.8814097506 -3.3330333264 -3.7839936097 -4.234485206
          4.7772769213 4.2271050389 3.6767604035 3.1261459263 2.5751002496 2.0233668105
          1.5084106452 1.005163471 0.50298858631 0.0015317443945 -0.49934229324 -0.99980428228
          -1.4999211956 -1.9824734407 -2.435041774 -2.8865084874 -3.3373304454 -3.7877765456
          -4.2380080058 4.7774206508 4.2273518224 3.6772321311 3.1270904023 2.5769978856
          2.0271238391 1.5041482439 1.0014144726 0.49996323431 -0.00069904710273 -0.50092000273
          -1.0007861956 -1.5002443166 -1.9806639848 -2.4340542407 -2.8860348306 -3.33718509
          -3.7878327606 -4.2381650498 4.7734090429 4.2229078951 3.6719476074 3.1202890618
          2.5675459492 2.013134857 1.5057628117 1.0034493774 0.50147777034 -0.00047182189059
          -0.50272342907 -1.0056513892 -1.5097289946 -1.9718138013 -2.4250846615 -2.8772876131
          -3.3288311302 -3.7797893085 -4.2302610876 4.7759462484 4.2257241815 3.6752834647
          3.1245108157 2.5732260965 2.0211622489 1.5067752696 1.0034278331 0.50134133332
          -2.9368391937e-05 -0.50101236036 -1.0017936567 -1.5024311318 -1.9761825691 -2.4305688506
          -2.883021682 -3.3343690279 -3.7850778655 -4.2354118372 4.7778695912 4.2278761266
          3.6778631604 3.127813454 2.5777041289 2.0275158269 1.506371769 1.0024531781
          0.50050289063 -0.00036657122396 -0.50040170189 -0.99977096842 -1.4984165213 -1.987211243
          -2.4387105072 -2.8893898768 -3.3396403658 -3.789699577 -4.2397124457 4.778321865
          4.2285253095 3.6789146755 3.129618084 2.5808691133 2.0330924691 1.5035255431
          1.0006570039 0.49927676331 -0.0011424908646 -0.50107453312 -1.0006028174 -1.4996688503
          -1.9818018819 -2.4350370589 -2.8868735267 -3.3379031 -3.7884600408 -4.2387349146
          4.7564545515 4.2056859211 3.6544018387 3.1025693824 2.5501502062 1.99712087
          1.4970664904 0.99638402088 0.49505861933 -0.006972397837 -0.50986989986 -1.0139272738
          -1.5196264394 -1.9689654553 -2.4189922588 -2.8693347813 -3.319757654 -3.7701262736
          -4.2203664071 4.7613099079 4.2104809206 3.6590173448 3.1067727388 2.5535237702
          1.9989600848 1.5000986429 1.0003498348 0.49994515384 -0.0010369609329 -0.50267329615
          -1.0052243649 -1.5091995038 -1.9653666064 -2.4175557113 -2.869296397 -3.3205993889
          -3.771494903 -4.2220118352 4.7680617229 4.2175587909 3.666576264 3.1148756232
          2.562026877 2.0072836913 1.506186944 1.0056317557 0.50515115061 0.0048493745028
          -0.49516447007 -0.99482894256 -1.4940259766 -1.9675264389 -2.4208663966 -2.8730374456
          -3.3244513613 -3.7753498158 -4.2258718919 4.7732811869 4.2235895325 3.6741434719
          3.1251275821 2.5768794096 2.0300281865 1.5064312921 1.0046997734 0.50366770348
          0.0031010072215 -0.49714042096 -0.99702252409 -1.4963677517 -1.9713694238 -2.424054985
          -2.8758656691 -3.3269849857 -3.7777144323 -4.2281726065 -4.6712068832 -4.6739464438
          -4.6790084336 -4.6816019539 -4.6746434677 -4.6787723302 -4.6845485973 -4.6875618939
          -4.6809415878 -4.6849224485 -4.6898007991 -4.6916376758 -4.684240519 -4.6861341052
          -4.690427358 -4.6911026387 4.7585359954 4.2077706372 3.6564360089 3.1044325563
          2.5515985889 1.9976884412 1.4985023469 0.99862618459 0.49825826487 -0.0024590938212
          -0.50342972101 -1.0045712823 -1.5057753956 -1.9649661197 -2.4170579624 -2.8686414907
          -3.319801811 -3.7705946075 -4.2210559262 4.76475918 4.2143931424 3.6637553897
          3.1128005596 2.5614556385 2.0096147195 1.5057953351 1.0049668976 0.50443368188
          0.0042506243807 -0.49548318223 -0.99459200597 -1.492759037 -1.9655526627 -2.4186902068
          -2.870851861 -3.3223132375 -3.7732530741 -4.2237780669 4.7717050544 4.2219110422
          3.6723003286 3.1229556301 2.5740219818 2.02575996 1.5103700775 1.0081710935
          0.50703339396 0.0066683086213 -0.49298993455 -0.99194957499 -1.4901529579 -1.980899165
          -2.4297643416 -2.8792634984 -3.3290650632 -3.7790089651 -4.2290049771 4.7752460441
          4.2257026197 3.6765572296 3.1279789003 2.5802528133 2.0338410711 1.4985427006
          1.0000336992 0.50101597719 0.0018326955077 -0.49731030453 -0.99614511515 -1.4943255582
          -1.9831915317 -2.4324998585 -2.8820478287 -3.3317908001 -3.7816521147 -4.2315945556
          4.7647940202 4.2144736639 3.6639225276 3.1131127303 2.5619993704 2.0105185636
          1.505806528 1.0048293928 0.50423045289 0.0040425736802 -0.4956464449 -0.99466083563
          -1.4926707074 -1.9662545675 -2.4194185977 -2.8715771139 -3.3230291288 -3.7739586164
          -4.2244768299 4.7714345646 4.22174327 3.6723145541 3.1232426311 2.5746805349
          2.0268867669 1.5102171093 1.0080580742 0.50695436528 0.0067021484773 -0.49277992169
          -0.99148033701 -1.4892967668 -1.9735754771 -2.4256696386 -2.8770198243 -3.3278685531
          -3.7783929352 -4.2286788556 4.7764929939 4.2270376494 3.6780248652 3.1295460025
          2.5817397274 2.0348063182 1.5070058962 1.005188485 0.50437663149 0.0042350489035
          -0.49541411725 -0.99466210192 -1.4935457152 -1.9877453555 -2.4368971415 -2.8860698922
          -3.3354064224 -3.7849294415 -4.2346449227 4.7776024054 4.2279878058 3.6786586546
          3.129676382 2.581133374 2.0331657937 1.4892968251 0.99320743744 0.49576886046
          -0.0025421843066 -0.50143234506 -1.0007692988 -1.5005393857 -2.00085019 -2.4454123587
          -2.8919797928 -3.3398222637 -3.7885096881 -4.2377982385 4.771565908 4.2218085926
          3.6722755328 3.1230778047 2.5744084725 2.0266033879 1.5088223382 1.0065945601
          0.50550277538 0.0052191457887 -0.49439441864 -0.99338844496 -1.491699724 -1.9837818532
          -2.4326562281 -2.8818845511 -3.3313903603 -3.7810992344 -4.2309586597 4.7763381325
          4.2269105392 3.6779142543 3.1294536431 2.5816836648 2.0348277018 1.4999537097
          1.0004944471 0.50121268528 0.0020185928536 -0.4970223753 -0.99601546758 -1.4950003968
          -1.9921035689 -2.4391906782 -2.8873376114 -3.3361594275 -3.7854354107 -4.2350435432
          4.7789035827 4.2293735308 3.6801975253 3.1314130258 2.5830712623 2.0352337915
          1.493173638 0.9954478879 0.49708533192 -0.0017064437984 -0.50081355946 -1.0002094009
          -1.4999015238 -1.999642521 -2.4463696023 -2.893846764 -3.342009128 -3.790760535
          -4.2400376394 4.7788215844 4.229016056 3.6793333996 3.1297411538 2.5801775479
          2.0305273529 1.4808204209 0.98674129819 0.49073548807 -0.0066135473471 -0.50493393988
          -1.0040320929 -1.503864047 -2.0044955987 -2.4498756883 -2.8965758521 -3.3442907771
          -3.7927951628 -4.2419399065 4.7752075075 4.2256472075 3.6764713494 3.1278409555
          2.580029617 2.033485105 1.4968627768 0.99859141148 0.49968601473 0.00038421735489
          -0.49917649228 -0.99885080955 -1.4986294637 -1.9983079157 -2.4419946246 -2.8883480722
          -3.3362502497 -3.7850694584 -4.2344585837 4.7775879642 4.2278944273 3.6784340723
          3.1292172011 2.5802509007 2.0315224844 1.4843460248 0.99089388394 0.49494403238
          -0.0024255327528 -0.5006557716 -0.99926934433 -1.497885862 -1.9823723781 -2.4345609678
          -2.8855381838 -3.3359329929 -3.7860669689 -4.2361066618 4.7785916704 4.2287939849
          3.6791409066 3.1296521188 2.5803631598 2.0313467279 1.5029877914 1.0004364378
          0.49934217608 -0.0010608223082 -0.501204554 -1.0013294063 -1.5016213722 -2.0022612917
          -2.4475844479 -2.8945394708 -3.342570973 -3.7913432206 -4.2406627711 4.7786297017
          4.2287452958 3.6789376092 3.1291933318 2.5794823821 2.0297346426 1.4798772106
          0.98689508038 0.49118052531 -0.0061560329578 -0.50448479155 -1.0034405644 -1.5028327525
          -2.0023754244 -2.4477756589 -2.8948746067 -3.3430516259 -3.7919396607 -4.2413281375
        </DataArray>
        <DataArray type="Float64" Name="Phase1::Saturation" format="ascii" RangeMin="0.00033170895486" RangeMax="0.99899871939">
          0.00086774803657 0.00083641660315 0.00082875956544 0.00077606839246 0.9989895527 0.99826950491
          0.99899871939 0.99899102838 0.00079659417153 0.0007865768154 0.0007508239769 0.0006874688691
          0.0007411106943 0.00072951160796 0.00072030434538 0.00063880692461 0.00079637737563 0.00078514223237
          0.00073705294256 0.00052559579505 0.00062840250153 0.00072936294976 0.00072014644365 0.00063851599218
          0.99869634992 0.99866002081 0.99843162033 0.9989933637 0.99820015066 0.99858352206
          0.99839961283 0.99870668063 0.9987069791 0.99840885096 0.9986618676 0.99869817425
          0.99803444474 0.99865553697 0.99865966573 0.99869615413 0.0020010447536 0.0028768325895
          0.003675052167 0.0044345776723 0.0052276797294 0.009920170536 0.010884103907 0.012138011942
          0.01347418261 0.014834485641 0.016199827087 0.017675423066 0.62181764388 0.98651012302
          0.98856689817 0.99060878389 0.99263707665 0.99465890733 0.99670188889 0.0018778909121
          0.0026944946965 0.0034493608534 0.0041744055041 0.0048837045747 0.0085821104268 0.0099297600847
          0.011269312445 0.01252956823 0.013835677353 0.015474999808 0.016951837604 0.031454563175
          0.98129273137 0.98706431919 0.98923918457 0.99141427966 0.99360047919 0.99581399274
          0.0016964600797 0.0024472143684 0.0031568303845 0.0038472257857 0.0045267099068 0.0066792727714
          0.0089238156108 0.010358693319 0.011790111442 0.013213986719 0.014602883788 0.015963922285
          0.025748626046 0.98326200599 0.98697343892 0.98928362589 0.9916364547 0.99404093864
          0.99648807831 0.001865261261 0.0026899603709 0.0034563854147 0.0041931599657 0.0049126205186
          0.0087001496869 0.010043123463 0.011362583541 0.01278217056 0.014239916719 0.015675849049
          0.017131481715 0.17555268949 0.9858431488 0.98816403592 0.99031151961 0.99239949113
          0.99452302355 0.99664334576 0.00065890474039 0.00065056271148 0.00061339024822 0.00044127792187
          0.00065058427878 0.00064394233053 0.00060977031601 0.00044008427044 0.00061335710227 0.00060969926942
          0.00058538312025 0.0004281486719 0.00044142288705 0.00044001717911 0.00042795523759 0.00033170895486
          0.0018388866656 0.0026888176193 0.0034740915403 0.0042253380515 0.0049582548006 0.0091779677745
          0.010370468582 0.011683098921 0.013038603405 0.014411239915 0.015784323791 0.01715853588
          0.27755511581 0.98587677613 0.98796551391 0.99005498019 0.99214345608 0.99423515195
          0.99635149761 0.0017865289243 0.0025946573691 0.0033503816595 0.0040815974019 0.0047999616897
          0.008448253722 0.0098101513374 0.01120477403 0.012601041515 0.013997074193 0.015384616113
          0.016732756464 0.034668452063 0.98484566096 0.98742422953 0.98958497995 0.99176483571
          0.99397309984 0.99621903221 0.0016979580924 0.002486034753 0.0032295521849 0.0039521121071
          0.0046622674728 0.0075653687767 0.0093268367703 0.010806130611 0.012173381555 0.013501300149
          0.014882400279 0.016228619682 0.021395683718 0.98192480501 0.98681050578 0.9889919254
          0.99120331442 0.99347393404 0.99585337239 0.0016101169374 0.002410275852 0.0031643851625
          0.0038936927263 0.0046078848764 0.0066746014378 0.0092299805359 0.010662188865 0.012248011292
          0.013739331915 0.015080786888 0.016447598907 0.038605327363 0.98455750498 0.98752014463
          0.9897036105 0.99190486676 0.99414834438 0.99647507548 0.0015204199637 0.0023083591373
          0.0030595474856 0.0037895909286 0.0045061536023 0.0060685639673 0.0090233817614 0.010441780783
          0.01185419869 0.013293174277 0.014717702759 0.016127659848 0.02095438985 0.97876827849
          0.98677039464 0.98894001441 0.99112250907 0.99333985696 0.99563965948 0.0016249315604
          0.0023680212338 0.0030860114421 0.003794231854 0.0044959808365 0.006320915079 0.0089022376763
          0.01036982615 0.011788611552 0.013205263967 0.014671990748 0.016135313898 0.030030951163
          0.98179406415 0.9870330654 0.98924421728 0.99147368711 0.99373589754 0.99605470561
          0.0016408112085 0.0024098901964 0.0031307396954 0.0038318069318 0.0045238648454 0.0064532199836
          0.0088955724731 0.010332709755 0.011693056375 0.012978090611 0.014350071591 0.015786035876
          0.020262375187 0.9789629195 0.9866674109 0.98890538692 0.99117413277 0.99348789844
          0.99585455071 0.0015229334445 0.0023012769345 0.0030291272606 0.0037313725572 0.0044207877322
          0.0058427118882 0.0087069450444 0.010110161279 0.011608395598 0.013058428469 0.014397281175
          0.01575131603 0.020290075374 0.9805944876 0.98659797421 0.98887094143 0.99119068743
          0.99358594798 0.99610275778 0.0016905472986 0.0024967710782 0.003257324128 0.0039932005011
          0.0047133032282 0.0072091220901 0.009450811836 0.010876593291 0.012324610205 0.013790366133
          0.015233534255 0.016656565036 0.04590959064 0.98454274498 0.98745054799 0.98931025124
          0.99132478901 0.99368129606 0.9962398281 0.0016576955655 0.0024356573995 0.0031721841186
          0.0038903877851 0.0045985407442 0.0064852658205 0.0090100758144 0.010460078813 0.011897804653
          0.013327867783 0.014748109727 0.016160917485 0.022668910147 0.98260068569 0.98691419262
          0.98907208518 0.99130387307 0.99364396074 0.99609345952 0.0016209337665 0.0023753359762
          0.0030888794168 0.0037871591536 0.0044793566859 0.0059390413768 0.0087376379788 0.010168116986
          0.011525563972 0.012828716512 0.014209340607 0.015607780301 0.018191884181 0.97673755646
          0.98635997311 0.98859175886 0.99087714203 0.99325479988 0.99575969102 0.0014788840843
          0.0022196293474 0.0029283777204 0.0036223451092 0.0043097859629 0.0053649088375 0.0085140935852
          0.0098987138115 0.01138802614 0.012870642158 0.014289942686 0.015679628779 0.019577339885
          0.98011805494 0.986526203 0.98881212363 0.99114840287 0.99356714321 0.99610107159
          0.0018392358593 0.0026904418477 0.0034768598197 0.0042290201928 0.0049627792458 0.0092204684855
          0.010397754981 0.011704275828 0.013055328516 0.014415783552 0.015777824076 0.017154886837
          0.28470638091 0.98596983147 0.98805618517 0.99012546321 0.99218854695 0.99425193474
          0.99635121452 0.001786835412 0.0025997545156 0.0033599172755 0.0040947662997 0.004816456055
          0.0085408249518 0.0098593336712 0.011243323522 0.012625878218 0.013980716629 0.01534462718
          0.016717011938 0.042874489246 0.98506558837 0.98763142573 0.98979364821 0.99192535922
          0.99408068094 0.99627140089 0.0016737989481 0.0024679501621 0.0032210505029 0.0039530243272
          0.0046716474274 0.0074882835513 0.009322333314 0.010804913134 0.012195994917 0.01350469398
          0.014889540825 0.016298824099 0.033387396787 0.98195481003 0.98696553376 0.9891663498
          0.99135652385 0.99355148647 0.9959333766 0.0013973607296 0.0022114302624 0.0029855281729
          0.0037342902462 0.0044669078113 0.0057255773349 0.0090303046115 0.010405079092 0.011923125243
          0.013448949607 0.014915502278 0.016356910254 0.024068057408 0.98178153679 0.98705430224
          0.9893749113 0.9917416757 0.99360730999 0.9955433356 0.99821700956 0.99814238396
          0.99813077461 0.99776458532 0.99814242845 0.99784844088 0.99826741726 0.99769449828
          0.99792042334 0.99780104023 0.99797166179 0.9976798018 0.99761560858 0.99836148378
          0.99769692117 0.99755173442 0.0016045459919 0.002444854067 0.0032324288429 0.0039875785632
          0.0047224620786 0.0077670388713 0.0097089345471 0.011188961456 0.01258852634 0.013978278052
          0.015365616842 0.016749156683 0.041050060021 0.98452369012 0.98731308592 0.98939891108
          0.99149282523 0.99359734516 0.99575920345 0.0015557745023 0.0023444004748 0.003099955993
          0.0038365722874 0.0045606907356 0.0069557578313 0.0091308687174 0.010677467796 0.012135599553
          0.013553740545 0.014959171145 0.016363076354 0.0223809663 0.98228035136 0.98694783415
          0.98910487448 0.99124135907 0.99339673099 0.99560890732 0.0014877646163 0.0022627668212
          0.003006503548 0.0037348960033 0.0044547421353 0.0060489664006 0.0088299719935 0.010290488314
          0.011689503932 0.013016627174 0.01439858847 0.015800813016 0.018145780573 0.96255645184
          0.98636728129 0.988655119 0.99097157485 0.99318332415 0.99549477825 0.0012831129125
          0.0020652290764 0.002821104972 0.0035593812766 0.0042862925184 0.0052099827069 0.0086076248151
          0.0099762283514 0.011472617589 0.012975149951 0.014415743472 0.015842831121 0.018465710678
          0.93914221946 0.98632737619 0.98830626893 0.99039678112 0.99260891859 0.99496129905
          0.0015542923851 0.0023406337652 0.0030950893061 0.0038310946099 0.0045546126385 0.0068402387739
          0.0090960206327 0.010639170194 0.012102005091 0.013547351937 0.014972972685 0.016366764987
          0.022052920095 0.98200369936 0.98676652573 0.98890323705 0.99106821153 0.99326907752
          0.99555481499 0.001504576467 0.0022337712182 0.0029532914651 0.0036708962794 0.0043864406598
          0.0059368337892 0.008626769489 0.010145984761 0.011644553794 0.01312964968 0.014587927317
          0.016015905187 0.019332817021 0.97822282565 0.98642686568 0.98842289786 0.9905010634
          0.99272781794 0.99506655405 0.0014088951963 0.0020878858579 0.0027852894032 0.0034878482094
          0.0041923922584 0.0053310011055 0.00841027824 0.0098670211151 0.011325290439 0.012775324627
          0.014203678316 0.015620963717 0.01755540239 0.94687604415 0.98623796447 0.98855967953
          0.99092300267 0.99320087095 0.99559597443 0.0013149575299 0.002088919022 0.0028162516483
          0.0035288751632 0.0042355360369 0.0050096460905 0.0082880848452 0.0096537030213 0.011035257217
          0.012427934731 0.013815167472 0.015207436392 0.016606104736 0.75924881049 0.98553467238
          0.98784788451 0.99007200754 0.99235113965 0.9947757039 0.0014727751042 0.0022349210496
          0.0029719905481 0.0036962507886 0.0044128042108 0.0058712195476 0.0087972820379 0.010238195165
          0.011685666841 0.013136420639 0.014537710702 0.015830452535 0.017952057156 0.96813718973
          0.98621780292 0.98836754199 0.9905543598 0.99280169057 0.99517145069 0.0014123032013
          0.00208883612 0.0027926732362 0.0034999385739 0.0042071090285 0.0051642499219 0.0083481258798
          0.0097580143075 0.011193728877 0.012725686699 0.014181034656 0.015520133994 0.01714191937
          0.91536582819 0.98592368258 0.98806632555 0.99025111174 0.99251722557 0.9949190113
          0.0013696263742 0.0020386654264 0.0027214557174 0.0034101248714 0.0041020164457 0.0049078146253
          0.0081755841336 0.0095650418096 0.010964194527 0.012465857153 0.013928817803 0.015340964875
          0.016758979485 0.89804619266 0.98588189957 0.98807183381 0.99030399924 0.99261677864
          0.99508865398 0.0012205096429 0.0019410157908 0.0026376034384 0.0033274818099 0.0040151598621
          0.0047132021058 0.0079714600598 0.0094241280357 0.010799490706 0.012173833795 0.013559479031
          0.014942899563 0.016330408759 0.6092637061 0.98525508718 0.98760980941 0.98987036813
          0.99219783983 0.99468624581 0.0012689133429 0.0020367293726 0.0027793099341 0.0035069319848
          0.0042252277917 0.005108804788 0.0085387544706 0.009904076845 0.011305454413 0.012732472727
          0.014104655512 0.015416511824 0.016814836635 0.78280042289 0.98581703118 0.98797053954
          0.990141948 0.99237095496 0.99472838568 0.0012053894056 0.0019037007135 0.0026185576083
          0.003329041526 0.004034304665 0.0047651668541 0.008074720755 0.0095217344622 0.010905263086
          0.012383880104 0.014095054122 0.015751464468 0.019325607484 0.9783377209 0.98655542644
          0.98876262654 0.99100324071 0.99330873107 0.99572686044 0.0013849805827 0.0022139081181
          0.0029473482611 0.0036534691863 0.0043493147436 0.0055460927676 0.008577235645 0.0099852479366
          0.011400830916 0.012626543289 0.013712581266 0.015036005514 0.016431468723 0.67728570893
          0.98543106193 0.98772266158 0.98995714832 0.99227139358 0.99473672151 0.0011288826473
          0.0018689805305 0.0025870823529 0.0032864407137 0.0039752543504 0.0046628459197 0.0078584936218
          0.0093523690527 0.010727154321 0.012111086696 0.013491895281 0.014836370079 0.016217585013
          0.5144791981 0.98505964416 0.98738953836 0.98965305591 0.99199225806 0.99448357249
        </DataArray>
        <DataArray type="Float64" Name="Phase1::RelativePermeability" format="ascii" RangeMin="1.1003083073e-07" RangeMax="0.99799844133">
          7.5298665497e-07 6.9959273403e-07 6.868424173e-07 6.0228214977e-07 0.9979801264 0.99654200444
          0.99799844133 0.99798307478 6.3456227412e-07 6.1870308652e-07 5.6373664429e-07 4.7261344598e-07
          5.492450612e-07 5.3218718615e-07 5.1883834997e-07 4.0807428693e-07 6.3421692441e-07 6.1644832505e-07
          5.4324704013e-07 2.7625093978e-07 3.9488970393e-07 5.3197031249e-07 5.1861090031e-07 4.0770267227e-07
          0.99739439934 0.99732183716 0.99686570047 0.99798774071 0.99640354078 0.99716905053
          0.99680178689 0.99741503393 0.99741563011 0.99682023368 0.99732552581 0.99739804326
          0.99607275289 0.99731288152 0.99732112795 0.99739400827 4.0041801061e-06 8.2761657479e-06
          1.350600843e-05 1.9665479132e-05 2.7328635354e-05 9.8409783463e-05 0.00011846371785 0.0001473313339
          0.00018155359701 0.00022006196422 0.00026243439765 0.00031242058056 0.38665718224 0.97320222283
          0.97726451216 0.98130576271 0.98532836594 0.98934634194 0.99341465532 3.5264742778e-06
          7.2603016696e-06 1.1898090297e-05 1.7425661313e-05 2.3850570373e-05 7.3652619377e-05 9.860013534e-05
          0.00012699740298 0.00015699008003 0.00019142596782 0.00023947561904 0.00028736479814 0.0009893895445
          0.96293542464 0.97429597022 0.97859416429 0.98290227391 0.98724191225 0.99164550815
          2.8779768019e-06 5.988858165e-06 9.9655780765e-06 1.4801146246e-05 2.049110258e-05 4.4612684755e-05
          7.9634485056e-05 0.00010730252727 0.00013900672781 0.00017460944502 0.00021324421493 0.00025484681472
          0.00066299174324 0.96680417242 0.97411656914 0.97868209246 0.98334285829 0.98811738768
          0.99298849022 3.4791995719e-06 7.2358867972e-06 1.1946600135e-05 1.7582590498e-05 2.413384036e-05
          7.5692604574e-05 0.0001008643289 0.00012910830473 0.00016338388423 0.00020277522817 0.00024573224339
          0.00029348766576 0.030818746788 0.97188671403 0.97646816188 0.98071690588 0.98485674999
          0.98907604437 0.99329795865 4.3415545691e-07 4.2323184157e-07 3.7624759661e-07 1.9472620433e-07
          4.2325990379e-07 4.1466172504e-07 3.7181983828e-07 1.9367416508e-07 3.7620693491e-07 3.7173319913e-07
          3.4267339748e-07 1.8331128525e-07 1.9485416521e-07 1.9361511791e-07 1.8314568538e-07 1.1003083073e-07
          3.3815041691e-06 7.2297401896e-06 1.2069312031e-05 1.7853481649e-05 2.4584290668e-05 8.4235092471e-05
          0.00010754661861 0.0001364948004 0.00017000517876 0.0002076838359 0.00024914487755 0.00029441535354
          0.077036842311 0.97195301771 0.97607585668 0.98020886381 0.98434863745 0.98850353738
          0.9927163068 3.1916855972e-06 6.732246863e-06 1.1225057264e-05 1.6659437351e-05 2.3039632223e-05
          7.1372990952e-05 9.6239069263e-05 0.00012554696107 0.00015878624727 0.00019591808598 0.00023668641294
          0.00027998513889 0.0012019015684 0.96992097591 0.97500660905 0.97927843254 0.98359748936
          0.98798252321 0.99245236014 2.8830616836e-06 6.1803687931e-06 1.0430007315e-05 1.5619190107e-05
          2.1736737988e-05 5.7234804728e-05 8.6989884141e-05 0.00011677245877 0.00014819121847 0.0001822851057
          0.00022148583806 0.00026336809678 0.00045777528177 0.96417632269 0.97379497432 0.9781050285
          0.98248401052 0.98699045762 0.99172393929 2.592476552e-06 5.8094296829e-06 1.0013333456e-05
          1.5160843047e-05 2.1232603034e-05 4.4550304354e-05 8.5192540694e-05 0.0001136822714 0.00015001378061
          0.00018876924146 0.00022743013317 0.00027052350981 0.0014903713008 0.96935348061 0.97519603605
          0.97951323664 0.98387526471 0.98833093064 0.99296257605 2.311676866e-06 5.3285219068e-06
          9.3608308167e-06 1.4360999406e-05 2.0305420288e-05 3.6827468625e-05 8.1421418412e-05 0.00010903078592
          0.00014052202658 0.00017670848236 0.0002166107745 0.00026010141218 0.00043908645398 0.95798734298
          0.97371581174 0.97800235211 0.98232382799 0.98672407143 0.99129833153 2.6404025759e-06
          5.6075245637e-06 9.5234666208e-06 1.4396195362e-05 2.0213843682e-05 3.9953967436e-05 7.9249835646e-05
          0.00010753329438 0.00013897136233 0.00017437899645 0.00021526731251 0.00026034835459 0.00090185802775
          0.96391958441 0.97423427219 0.97860412141 0.98302007223 0.98751103406 0.99212497657
          2.6922614218e-06 5.8075707587e-06 9.8015310401e-06 1.4682744363e-05 2.046535314e-05 4.1644048156e-05
          7.9131209625e-05 0.00010676489088 0.0001367275674 0.00016843083591 0.00020592455467 0.00024919892868
          0.00041056384823 0.95836839775 0.97351257974 0.97793386428 0.98242616147 0.98701820435
          0.99172628616 2.3193262764e-06 5.2958755291e-06 9.1756119609e-06 1.3923141161e-05 1.9543364173e-05
          3.4137282209e-05 7.5810892007e-05 0.00010221536109 0.00013475484836 0.00017052255407 0.00020728170524
          0.00024810395669 0.00041168715868 0.96156554912 0.97337556271 0.97786573881 0.98245897885
          0.98721303603 0.99222070407 2.8579501689e-06 6.2338658168e-06 1.0610160475e-05 1.5945650242e-05