<VTKFile type="UnstructuredGrid" version="0.1" byte_order="LittleEndian">
  <UnstructuredGrid>
    <Piece NumberOfPoints="126" NumberOfCells="200">
      <PointData Scalars="Phase1::Pressure" Vectors="Phase1::DarcyVelocity">
        <DataArray type="Float64" Name="Phase1::Pressure" format="ascii" RangeMin="-4.6859257481" RangeMax="5.3410276903">
          5.3137726773 5.3410276903 -4.6586276261 -4.6859257481 5.3170087992 5.3267580979
          5.3358025287 5.340325242 -4.6593707957 -4.6636760442 -4.6725458498 -4.682459045
          4.7635704706 4.2129623493 3.6619490624 3.1105392309 2.5587608337 2.0066817727
          1.5057850557 1.0048698263 0.5035655757 0.0017640467278 -0.5006755812 -1.0039514635
          -1.508339752 -1.9579446451 -2.4079073089 -2.8580504726 -3.3082565243 -3.758448971
          -4.2085810713 4.7910716953 4.2411947413 3.6913673875 3.1415345295 2.5916053366
          2.0414387321 1.4908184584 0.99559487419 0.49910044552 0.0016640905815 -0.49648965372
          -0.99521023753 -1.4943927975 -1.9937981917 -2.4414165875 -2.889435425 -3.3378924188
          -3.7867958982 -4.236142361 4.7668059022 4.2161809035 3.6650877045 3.1134422413
          2.5611086927 2.0078793333 1.5081253127 1.0080038053 0.50756796032 0.0068937162658
          -0.49397253697 -0.99500000764 -1.4961579205 -1.9550641542 -2.4064454547 -2.8575309003
          -3.3083495921 -3.7589213474 -4.2092591891 4.7767808818 4.2268551404 3.6770027431
          3.1272638174 2.5777038136 2.0284321853 1.5174961743 1.0162140502 0.51543875023
          0.015147582418 -0.48464134407 -0.983868011 -1.4824183002 -1.9574888993 -2.4096136279
          -2.8611937654 -3.3123303898 -3.7630939509 -4.2135329198 4.7859443269 4.2363792886
          3.6871361291 3.138263199 2.5898307588 2.04193953 1.5178395409 1.0163881648
          0.51561747756 0.015421162239 -0.48425515025 -0.98342404727 -1.482056357 -1.9703576595
          -2.4212746544 -2.8718471146 -3.3221989942 -3.7724053357 -4.2225124933 4.7904449476
          4.2408083149 3.6914270881 3.142321846 2.5935249997 2.0450859279 1.5049259855
          1.0058011813 0.50665794197 0.0074300812827 -0.49193354461 -0.99148904671 -1.4913131674
          -1.9914438242 -2.4382766013 -2.8859808164 -3.3343580925 -3.7832780467 -4.2326598422
        </DataArray>
        <DataArray type="Float64" Name="Phase1::Saturation" format="ascii" RangeMin="0.00044378074554" RangeMax="0.99864989899">
          0.00079902122139 0.00044378074554 0.99864989899 0.99756992892 0.00066251186581 0.00066240964814
          0.00065618492516 0.00061030907535 0.9981432762 0.99800285064 0.99798370433 0.99798381857
          0.0014403957252 0.0022271262761 0.0029172650524 0.0038046547017 0.0042575398953 0.0084712392782
          0.0095760701813 0.010937908405 0.012200212316 0.01342282863 0.014985556609 0.01580854925
          0.38601661224 0.98654299799 0.98830450259 0.99038950089 0.99244279575 0.99451969239
          0.99664680209 0.0010662351025 0.0017478739271 0.0024183667197 0.0030844820963 0.0037654156582
          0.004318185586 0.0070978786004 0.0087458657769 0.010191687834 0.011555272553 0.012887836061
          0.014204686627 0.015394370208 0.27525052984 0.98709441956 0.98844205911 0.9910586804
          0.99296240493 0.99568611813 0.0013139073412 0.0020625659004 0.0027801558856 0.003523895185
          0.0041111234284 0.0068051187552 0.0086040616398 0.010044411155 0.011430168429 0.012820248805
          0.014246318909 0.015415717389 0.027172911702 0.98553737418 0.98777380975 0.98990061054
          0.99196513436 0.99407969467 0.99624720916 0.0012948902742 0.002032905043 0.0027421132693
          0.0034743224295 0.0040496890073 0.0056737982899 0.0081109418811 0.0094882853733 0.010926069068
          0.012345472387 0.013815477051 0.015025699766 0.019737351648 0.98318953805 0.98768153054
          0.98952657628 0.99169064162 0.99384837097 0.99607155199 0.0012916721888 0.0020209609588
          0.0027306980491 0.0034276806016 0.0040679568416 0.0051068917499 0.0079941103648 0.009350791743
          0.010715795044 0.012110214577 0.013503734922 0.014842882707 0.017087578115 0.97915015307
          0.9876990271 0.98941894474 0.9916630089 0.9938085172 0.99606006982 0.0012436242784
          0.0019558480562 0.0026486054773 0.0033204438702 0.0040284693849 0.0046780388035 0.007969271769
          0.0092638668303 0.010601074925 0.011946687597 0.01327665096 0.014702651381 0.015744051278
          0.90420371382 0.98753749636 0.98931451769 0.9916098007 0.99374329953 0.99600143105
        </DataArray>
        <DataArray type="Float64" Name="Phase1::RelativePermeability" format="ascii" RangeMin="1.9694135011e-07" RangeMax="0.99730162075">
          6.3843491223e-07 1.9694135011e-07 0.99730162075 0.99514576309 4.3892197234e-07 4.3878654195e-07
          4.3057865601e-07 3.7247716746e-07 0.99628999982 0.99600968988 0.99597147411 0.99597170212
          2.0747398452e-06 4.9600914498e-06 8.5104353861e-06 1.4475397399e-05 1.812664596e-05 7.1761894908e-05
          9.1701120117e-05 0.00011963784028 0.00014884518057 0.00018017232844 0.00022456690687 0.0002499102294
          0.14900882492 0.97326708688 0.97674578983 0.98087136347 0.98494270284 0.98906941855
          0.99330484811 1.1368572939e-06 3.0550632651e-06 5.8484975907e-06 9.5140298026e-06 1.4178355079e-05
          1.8646726755e-05 5.0379880626e-05 7.6490168188e-05 0.00010387050091 0.00013352432377 0.00016609631834
          0.00020177312217 0.00023698663409 0.075762854179 0.97435539313 0.97701770421 0.982197308
          0.9859743376 0.99139084584 1.7263525011e-06 4.2541780933e-06 7.7292667485e-06 1.2417837275e-05
          1.6901335844e-05 4.6309641273e-05 7.4029876702e-05 0.00010089019545 0.00013064875032 0.00016435877943
          0.00020295760245 0.00023764434261 0.00073836713034 0.9712839159 0.97569709923 0.97990321875
          0.98399482778 0.98819443936 0.99250850176 1.6767408223e-06 4.1327029137e-06 7.5191851815e-06
          1.2070916344e-05 1.6399981056e-05 3.2191987034e-05 6.5787378199e-05 9.0027559326e-05 0.00011937898528
          0.00015241068846 0.00019086740615 0.00022577165346 0.00038956305009 0.96666166774 0.97551480576
          0.97916284516 0.98345032867 0.98773458447 0.99215853668 1.6684170432e-06 4.084283197e-06
          7.4567118354e-06 1.1748994306e-05 1.6548272865e-05 2.6080343345e-05 6.3905800525e-05 8.7437306221e-05
          0.00011482826343 0.0001466572971 0.00018235085684 0.00022031116707 0.00029198532583 0.95873502226
          0.97554936813 0.9789498482 0.98339552323 0.98765536886 0.99213566269 1.5466013459e-06
          3.8253416188e-06 7.0151109743e-06 1.1025347495e-05 1.6228565585e-05 2.1884047047e-05 6.3509292528e-05
          8.5819228649e-05 0.00011238278957 0.00014272334453 0.00017626946071 0.00021616795764 0.00024787515065
          0.81758435608 0.97523030671 0.97874321491 0.98328999685 0.98752574536 0.99201885066
        </DataArray>
        <DataArray type="Float64" Name="Phase1::Density" format="ascii" RangeMin="0.9" RangeMax="0.9">
          0.9 0.9 0.9 0.9 0.9 0.9
          0.9 0.9 0.9 0.9 0.9 0.9
          0.9 0.9 0.9 0.9 0.9 0.9
          0.9 0.9 0.9 0.9 0.9 0.9
          0.9 0.9 0.9 0.9 0.9 0.9
          0.9 0.9 0.9 0.9 0.9 0.9
          0.9 0.9 0.9 0.9 0.9 0.9
          0.9 0.9 0.9 0.9 0.9 0.9
          0.9 0.9 0.9 0.9 0.9 0.9
          0.9 0.9 0.9 0.9 0.9 0.9
          0.9 0.9 0.9 0.9 0.9 0.9
          0.9 0.9 0.9 0.9 0.9 0.9
          0.9 0.9 0.9 0.9 0.9 0.9
          0.9 0.9 0.9 0.9 0.9 0.9
          0.9 0.9 0.9 0.9 0.9 0.9
          0.9 0.9 0.9 0.9 0.9 0.9
          0.9 0.9 0.9 0.9 0.9 0.9
          0.9 0.9 0.9 0.9 0.9 0.9
          0.9 0.9 0.9 0.9 0.9 0.9
          0.9 0.9 0.9 0.9 0.9 0.9
          0.9 0.9 0.9 0.9 0.9 0.9
        </DataArray>
        <DataArray type="Float64" Name="Phase1::DarcyVelocityOverPorosityCFL" format="ascii" RangeMin="9.0254984083e-07" RangeMax="0.080314630624">
          1.9534814198e-06 9.0254984083e-07 0.0007031394294 0.0049272458409 1.5671754964e-06 1.566236699e-06
          1.5378309125e-06 1.342070776e-06 0.0023865885941 0.0062315471335 0.011380562328 0.011557534824
          5.3498479799e-06 1.1700029354e-05 1.9948819961e-05 3.0981546942e-05 4.2445058444e-05 7.635771475e-05
          9.8995083165e-05 0.00012785521164 0.00016184934915 0.00019937096149 0.00024403423616 0.00028947569852
          0.006150256941 0.0091926347911 0.0070530792406 0.0069879032895 0.0057735903324 0.0038317491107
          0.0014803837993 2.7503075515e-06 6.9475887486e-06 1.2932717156e-05 2.0698751539e-05 3.0290816597e-05
          4.1355288181e-05 6.0502890554e-05 7.6159339488e-05 0.00010413373182 0.00013505986144 0.00016930350972
          0.000207047727 0.00024849114036 0.03430921664 0.049903005018 0.039737694885 0.030003985837
          0.020736801009 0.011855492766 4.2977894517e-06 9.9037087668e-06 1.7571227026e-05 2.7450999026e-05
          3.855631008e-05 6.0189261926e-05 8.0563224376e-05 0.00010979247 0.00014171046078 0.0001781499007
          0.00021863777001 0.00026072426148 0.00034498533934 0.028787612036 0.021885466176 0.016371033047
          0.011536764542 0.0071581276213 0.0041127524112 4.1506124172e-06 9.5378415097e-06 1.6849362586e-05
          2.6205136886e-05 3.6759343255e-05 5.2549879546e-05 7.3472098387e-05 9.9018845182e-05 0.000129207345
          0.00016284104943 0.00020022324456 0.00023906470611 0.00028969024286 0.05720827248 0.029847182839
          0.021762196377 0.015231727278 0.010352284256 0.0077612725597 4.0871721668e-06 9.3343065025e-06
          1.6448446455e-05 2.5351463102e-05 3.5882190143e-05 4.9143037407e-05 7.2486772015e-05 9.5249593084e-05
          0.00012315804456 0.00015505394992 0.00019039733575 0.00022943920705 0.00027147152068 0.080314630624
          0.020856774257 0.014851734066 0.011746968153 0.011029543432 0.011332155488 3.7547937976e-06
          8.6850036754e-06 1.541221222e-05 2.3864252934e-05 3.4217196158e-05 4.5928691389e-05 6.9577596281e-05
          8.9346716937e-05 0.00011679227104 0.00014810510916 0.00018321945404 0.00022264727894 0.00026329606606
          0.078977142955 0.054246960602 0.040663780737 0.02973704474 0.020599324213 0.012799370198
        </DataArray>
        <DataArray type="Float64" Name="Phase1::DivergenceTotalDarcyVelocity" format="ascii" RangeMin="-3.7298211642e-08" RangeMax="4.6055469295e-08">
          2.2903015747e-10 2.7691461267e-10 2.8486522953e-10 2.321816044e-10 5.6259098942e-11 -5.5400496473e-10
          -2.2460852622e-11 7.1853525191e-10 2.2092016988e-10 3.2798457812e-10 8.8848271467e-11 2.2774709487e-09
          -1.3520179507e-08 -2.3856677918e-09 -1.38397847e-08 5.956365956e-09 2.7547256837e-08 -4.4643313704e-09
          -6.0569153608e-09 4.4954688037e-09 8.0338248224e-09 1.5895234323e-08 6.1765009861e-09 -1.2268480771e-08
          7.0251196451e-09 1.9857128891e-08 6.0598128087e-09 -8.2129779044e-09 -5.5698754249e-09 1.528851712e-08
          -1.5792290755e-09 3.142271236e-09 8.0494670825e-09 -4.4504180614e-09 -7.1714413054e-09 -3.038651378e-09
          1.7032755891e-08 1.2252081763e-08 -2.4790532834e-08 -7.3803701228e-09 -4.5565857755e-09 -1.670759719e-08
          -1.7035287359e-09 -3.7298211642e-08 1.5213203284e-08 -1.2925623377e-08 -6.0795609519e-09 -2.6107804502e-08
          4.6055469295e-08 2.0369479947e-08 -2.5185172849e-08 -2.8337895398e-09 -9.2143300802e-09 -3.7732290382e-09
          -5.07213542e-10 -2.274109269e-08 2.7765747705e-08 2.2204320159e-09 1.6285270084e-08 -2.9978535403e-09
          -6.8221070628e-10 1.6072013184e-08 -5.8082643097e-10 2.6943669616e-09 -2.2407215298e-09 -3.8753614654e-10
          1.4839083866e-09 -4.5752132139e-09 -4.5669567695e-09 -1.1084392903e-08 -3.7199821023e-09 -2.0620098077e-09
          -5.1002798014e-09 -1.14758196e-08 -2.6538096871e-09 2.1790230173e-09 3.1177718532e-09 5.0653158324e-09
          9.6469982878e-09 7.0243656864e-09 2.1703256026e-09 4.3981288448e-10 3.7588533877e-09 -8.4349258094e-09
          5.2699420992e-10 8.1108142863e-10 -5.4988459856e-09 -1.6311497899e-08 1.8578275637e-09 4.6642321299e-09
          1.272427259e-08 1.8354376612e-09 -3.3741519127e-09 -4.490765805e-09 7.3151440417e-09 -1.0861406309e-08
          2.6134453732e-09 -1.1969209739e-08 -3.6103965669e-09 -7.3344726473e-09 -3.6777451486e-09 3.0045542655e-09
          -1.0780318409e-08 1.8440123233e-09 5.9408437262e-09 -8.8944178278e-09 2.5896628642e-08 2.1004324213e-08
          1.0423623249e-08 2.4492395959e-10 -3.5210077041e-09 -5.5150046856e-09 -1.7779513322e-09 2.0491583934e-09
          -1.2974049744e-08 -1.5882731804e-08 -2.1072847991e-08 -7.737043504e-09 4.0794116732e-09 1.2031570819e-08
          -2.9932355657e-08 2.675025467e-08 -5.2441993604e-09 2.0008353672e-08 1.0530163773e-08 2.8222083742e-08
        </DataArray>
        <DataArray type="Float64" Name="Phase1::Mobility" format="ascii" RangeMin="1.9774323319e-07" RangeMax="0.99644036489">
          6.159910626e-07 1.9774323319e-07 0.99644036489 0.99469941577 4.4070068088e-07 4.402495235e-07
          4.3029136094e-07 3.6243544011e-07 0.99561617881 0.99520607864 0.99555236283 0.99554780167
          1.9339828739e-06 4.6625825168e-06 8.2982238863e-06 1.3332957734e-05 1.8323206709e-05 5.753438876e-05
          8.7365683982e-05 0.0001137093636 0.00014392422656 0.00017667620135 0.00021585097642 0.00025176604679
          0.33945901324 0.97315542395 0.97617712893 0.98026376126 0.98451977888 0.9884977351
          0.99287969679 8.774247651e-07 2.6435579511e-06 5.299803142e-06 8.8397748491e-06 1.3288645605e-05
          1.8354833308e-05 4.0878249311e-05 7.2295969848e-05 9.8802359185e-05 0.00012790059677 0.00016000452115
          0.00019527058165 0.00023348904416 0.31182162043 0.97423865448 0.97798246661 0.98250328095
          0.98689843216 0.99177145584 1.4615377735e-06 3.8264663516e-06 7.1903862248e-06 1.1576141787e-05
          1.6541411575e-05 3.7886676923e-05 7.0216210997e-05 9.6971873183e-05 0.0001261709986 0.00015955237094
          0.00019661500248 0.00023501874564 0.00066845875683 0.68549855712 0.97505759253 0.97900164586
          0.9831560038 0.98748139561 0.99195704987 1.4031840881e-06 3.6895933249e-06 6.9413128052e-06
          1.1189824751e-05 1.6112906609e-05 2.9541129177e-05 5.9643442138e-05 8.6378846322e-05 0.00011504896795
          0.00014754735794 0.00018434774779 0.00022366791414 0.00036683489712 0.61363162552 0.97381398088
          0.9785262992 0.98270673675 0.98702282367 0.99169291656 1.3758701735e-06 3.6119192688e-06
          6.7979675708e-06 1.0901830362e-05 1.5900735576e-05 2.5089569145e-05 5.5047171373e-05 8.350923728e-05
          0.00011033119889 0.00014143904579 0.00017648343032 0.0002158765933 0.00028358892173 0.60120981377
          0.97204220215 0.97878316391 0.98346219626 0.98793421201 0.99248735896 1.2334087162e-06
          3.3194738458e-06 6.3156994439e-06 1.0198621786e-05 1.5037337001e-05 2.1327702544e-05 5.0490390507e-05
          8.0919393036e-05 0.00010697926296 0.00013673516587 0.00017009659901 0.00020742172474 0.00024599046594
          0.53434583009 0.97485040756 0.97941829252 0.98379799177 0.98814911033 0.99238614686
        </DataArray>
        <DataArray type="Float64" Name="Phase1::TotalMobility" format="ascii" RangeMin="0.56113163141" RangeMax="0.9964866639">
          0.99524287404 0.9964866639 0.99644138746 0.99470259913 0.99555061181 0.99555424902
          0.99520030921 0.99553674601 0.9956180531 0.99520830596 0.99555464224 0.99555008232
          0.99175640541 0.98703532744 0.98270317556 0.97813099382 0.97437807165 0.69692032769
          0.86928496397 0.95054231252 0.95057302087 0.95070912612 0.95048833307 0.95122377316
          0.73777957531 0.97325306673 0.97624784504 0.9803108929 0.98454809962 0.98851189212
          0.99288437153 0.99287245605 0.98873330204 0.98479348013 0.98061353457 0.97702414566
          0.97394174346 0.75136517623 0.95118251573 0.95076364067 0.95078434862 0.95067881883
          0.9507876647 0.88365130932 0.68605438568 0.97433246421 0.97805111316 0.98254656712
          0.98692288765 0.99178134577 0.9926859404 0.98815469973 0.98376827376 0.97948163222
          0.9749201841 0.73549402741 0.8147685695 0.95160307862 0.95132088133 0.95127887006
          0.95120951904 0.95101731762 0.56113163141 0.68561274037 0.97513577394 0.97905460041
          0.98318869237 0.98749851764 0.9919633854 0.99249291508 0.98795189688 0.98375833894
          0.97909007118 0.97193927599 0.59876363866 0.66295190206 0.95185715468 0.95193483829
          0.95185438563 0.95184559367 0.95065654067 0.59988449302 0.61378514416 0.97389635491
          0.97858295513 0.98274193617 0.98704149894 0.991700015 0.99167917072 0.9870138624
          0.98271112776 0.97853787516 0.97379493007 0.6135412755 0.6001303024 0.95072447771
          0.95184819389 0.95184681587 0.95194878453 0.95184477641 0.66235400128 0.60145060171
          0.9721252336 0.97884105074 0.98349808003 0.98795332262 0.99249462028 0.99196346442
          0.98748091967 0.98319541874 0.97914511437 0.97508553724 0.68904223991 0.56465896726
          0.95105826958 0.95123288059 0.95129152174 0.95135483793 0.95161327439 0.81818362013
          0.7131039296 0.97493526537 0.9794777932 0.98383466552 0.98816879194 0.99239369957
        </DataArray>
        <DataArray type="Float64" Name="Phase1::FractionalFlow" format="ascii" RangeMin="1.9844042109e-07" RangeMax="0.99999897378">
          6.1893541634e-07 1.9844042109e-07 0.99999897378 0.99999679969 4.4267029285e-07 4.4221550351e-07
          4.3236658687e-07 3.6406033385e-07 0.99999811747 0.99999776196 0.99999771041 0.99999770915
          1.9500583645e-06 4.7238253658e-06 8.4442831698e-06 1.3631055368e-05 1.8805027784e-05 8.2555188124e-05
          0.00010050292781 0.00011962577794 0.00015140785968 0.0001858362316 0.00022709481948 0.0002646759405
          0.46010898729 0.9998996738 0.99992756337 0.99995192174 0.99997123478 0.99998567845
          0.99999529175 8.837235435e-07 2.6736815131e-06 5.3816391446e-06 9.0145348166e-06 1.3601143497e-05
          1.8845925263e-05 5.4405301981e-05 7.6006411653e-05 0.00010391894995 0.00013452114242 0.00016830554966
          0.00020537769778 0.00026423210343 0.45451443346 0.99990371898 0.99992981292 0.99995594492
          0.99997522047 0.99999002812 1.4723063096e-06 3.8723353263e-06 7.3090243065e-06 1.181864101e-05
          1.6966939289e-05 5.1511875706e-05 8.617933193e-05 0.00010190369847 0.00013262717247 0.00016772407752
          0.00020669999463 0.00024712351845 0.0011912690702 0.99983345811 0.9999198251 0.99994591257
          0.99996675249 0.99998266121 0.99999361314 1.4137975867e-06 3.7345880266e-06 7.0559125452e-06
          1.1428800149e-05 1.6578100101e-05 4.9336878978e-05 8.9966469592e-05 9.0747698746e-05 0.00012085802864
          0.00015501043035 0.0001936740045 0.00023527731055 0.00061150921783 0.99974988213 0.99991541807
          0.99994210411 0.99996418244 0.99998107955 0.99999284215 1.3874146136e-06 3.6594412767e-06
          6.917564459e-06 1.1140938577e-05 1.6328628426e-05 4.0893041996e-05 9.1725365563e-05 8.7837474723e-05
          0.00011591259993 0.00014859433622 0.0001853917282 0.00022679810685 0.00042815310421 0.99959965466
          0.99991458771 0.99994086187 0.99996351415 0.99998065636 0.99999268377 1.2434013554e-06
          3.3615574536e-06 6.4236461272e-06 1.0415843001e-05 1.5421556804e-05 3.0952677947e-05 8.9417495223e-05
          8.5083528133e-05 0.00011246379845 0.00014373634448 0.0001787940653 0.00021796850709 0.00030065435177
          0.74932391747 0.99991296056 0.99993925265 0.99996272367 0.99998008274 0.9999923894
        </DataArray>
        <DataArray type="Float64" Name="Phase1::SumSaturation" format="ascii" RangeMin="0.99999983074" RangeMax="1.0000002552">
          0.99999998955 0.99999999323 0.99999999303 0.99999998954 0.999999985 0.99999998919
          1.0000000039 0.99999997481 0.99999998601 0.99999998534 0.99999998519 0.99999997712
          1.0000000533 1.0000000192 1.0000000915 1.0000000075 1.0000000134 0.99999999542
          0.99999999521 0.99999985908 0.99999993163 0.99999986098 0.99999987025 0.9999998738
          0.99999992365 0.99999996605 0.99999998688 0.99999998826 1.0000000092 0.99999997804
          0.99999999434 0.99999983074 0.99999996702 1.0000000248 0.9999999837 1.0000000148
          1.0000000993 1.0000001053 1.0000001687 1.0000001098 1.0000000955 1.0000000987
          0.99999999071 1.0000001324 0.99999998281 1.0000000525 0.99999994177 1.0000000507
          0.99999991166 0.99999994866 1.0000001191 1.0000000923 1.0000001077 1.0000000401
          1.000000017 0.99999999625 0.99999993269 0.99999995042 0.99999995055 0.99999994055
          0.99999993616 0.99999993683 0.99999990536 0.99999999891 1.0000000214 1.0000000148
          1.0000000215 1.0000000399 1.0000001179 1.0000002552 1.0000000857 1.000000066
          1.0000000459 1.0000000321 0.99999999835 0.99999998406 0.99999999252 1.000000014
          1.0000000168 1.0000000087 1.0000000141 1.0000000342 0.99999991439 1.0000001152
          1.0000000241 1.0000000234 1.0000000137 1.0000000477 0.99999996635 0.99999999243
          0.99999998015 0.99999997503 0.99999994389 0.99999993676 0.99999997931 1.000000075
          0.99999998624 1.0000000153 0.99999999458 1.0000000004 0.99999998446 1.0000000538
          0.99999992118 0.99999994882 0.99999991876 0.99999993462 0.99999988189 0.9999999482
          0.99999997253 0.99999996253 0.99999992216 0.99999998411 1.0000000616 0.99999990771
          1.0000002012 1.0000001257 1.0000000179 1.0000000422 1.0000000065 0.99999996331
          1.0000000152 0.99999990875 0.99999998917 0.99999996183 0.9999999239 0.99999987323
        </DataArray>
        <DataArray type="Float64" Name="Phase1::AveragePressure" format="ascii" RangeMin="-4.6859257481" RangeMax="5.3410276903">
          5.3137726773 5.3410276903 -4.6586276261 -4.6859257481 5.3170087992 5.3267580979
          5.3358025287 5.340325242 -4.6593707957 -4.6636760442 -4.6725458498 -4.682459045
          4.7635704706 4.2129623493 3.6619490624 3.1105392309 2.5587608337 2.0066817727
          1.5057850557 1.0048698263 0.5035655757 0.0017640467278 -0.5006755812 -1.0039514635
          -1.508339752 -1.9579446451 -2.4079073089 -2.8580504726 -3.3082565243 -3.758448971
          -4.2085810713 4.7910716953 4.2411947413 3.6913673875 3.1415345295 2.5916053366
          2.0414387321 1.4908184584 0.99559487419 0.49910044552 0.0016640905815 -0.49648965372
          -0.99521023753 -1.4943927975 -1.9937981917 -2.4414165875 -2.889435425 -3.3378924188
          -3.7867958982 -4.236142361 4.7668059022 4.2161809035 3.6650877045 3.1134422413
          2.5611086927 2.0078793333 1.5081253127 1.0080038053 0.50756796032 0.0068937162658
          -0.49397253697 -0.99500000764 -1.4961579205 -1.9550641542 -2.4064454547 -2.8575309003
          -3.3083495921 -3.7589213474 -4.2092591891 4.7767808818 4.2268551404 3.6770027431
          3.1272638174 2.5777038136 2.0284321853 1.5174961743 1.0162140502 0.51543875023
          0.015147582418 -0.48464134407 -0.983868011 -1.4824183002 -1.9574888993 -2.4096136279
          -2.8611937654 -3.3123303898 -3.7630939509 -4.2135329198 4.7859443269 4.2363792886
          3.6871361291 3.138263199 2.5898307588 2.04193953 1.5178395409 1.0163881648
          0.51561747756 0.015421162239 -0.48425515025 -0.98342404727 -1.482056357 -1.9703576595
          -2.4212746544 -2.8718471146 -3.3221989942 -3.7724053357 -4.2225124933 4.7904449476
          4.2408083149 3.6914270881 3.142321846 2.5935249997 2.0450859279 1.5049259855
          1.0058011813 0.50665794197 0.0074300812827 -0.49193354461 -0.99148904671 -1.4913131674
          -1.9914438242 -2.4382766013 -2.8859808164 -3.3343580925 -3.7832780467 -4.2326598422
        </DataArray>
        <DataArray type="Float64" Name="Phase1::AverageDensity" format="ascii" RangeMin="0.90017938078" RangeMax="1.0998206176">
          1.0996771008 1.0998206176 0.90017938078 0.90032289934 1.0997321444 1.099732149
          1.0997346983 1.0997532872 0.90024668922 0.90026532009 0.90026785841 0.90026784913
          1.0994184194 1.099101141 1.0988243319 1.0984679168 1.0982861994 1.0328097231
          1.0005957284 1.0003404136 1.000081109 0.99982554582 0.99953303314 0.99930633026
          0.96211543131 0.90178697843 0.90155293216 0.90127641695 0.90100380933 0.90072801693
          0.90044550304 1.0995687599 1.0992932115 1.0990216194 1.098752627 1.0984735021
          1.0982572562 1.0358461779 1.0007286281 1.0004706512 1.0001933793 0.99993997294
          0.99966721418 0.99942905266 0.97332479868 0.90171724365 0.90153763132 0.90118930243
          0.9009355337 0.90057331994 1.0994693751 1.0991672143 1.0988790251 1.0985787568
          1.0983435464 1.0877640596 1.0007154229 1.0004643493 1.0001843245 0.99991263434
          0.99963541886 0.99938458604 0.99808066051 0.90191230739 0.90162402184 0.90134087802
          0.90106704372 0.90078642204 0.90049868563 1.0994767511 1.0991779298 1.0988919888
          1.098593294 1.0983644018 1.0973073762 1.0008880475 1.0005356053 1.0002574984
          0.99997595406 0.9996898321 0.99943225622 0.99882511888 0.90218850898 0.9016386126
          0.90138966767 0.90110353338 0.90081697809 0.90052190692 1.0994774976 1.0991819809
          1.0988944204 1.0986087391 1.0983602556 1.0977888604 1.0011574395 1.0005674891
          1.000308681 1.0000238055 0.99974064501 0.99946350298 0.99910186023 0.90264660063
          0.90163475059 0.9014049571 0.90110773268 0.90082241346 0.90052333629 1.0994970203
          1.0992086585 1.0989272952 1.0986546552 1.0983699742 1.0980762624 1.0018395526
          1.0006158747 1.0003662929 1.0000864749 0.99981661869 0.99953453055 0.99928496385
          0.91025679648 0.90165752501 0.90142073179 0.90111561789 0.90083148643 0.90053127724
        </DataArray>
        <DataArray type="Float64" Name="Phase1::Time" format="ascii" RangeMin="10" RangeMax="10">
          10 10 10 10 10 10
          10 10 10 10 10 10
          10 10 10 10 10 10
          10 10 10 10 10 10
          10 10 10 10 10 10
          10 10 10 10 10 10
          10 10 10 10 10 10
          10 10 10 10 10 10
          10 10 10 10 10 10
          10 10 10 10 10 10
          10 10 10 10 10 10
          10 10 10 10 10 10
          10 10 10 10 10 10
          10 10 10 10 10 10
          10 10 10 10 10 10
          10 10 10 10 10 10
          10 10 10 10 10 10
          10 10 10 10 10 10
          10 10 10 10 10 10
          10 10 10 10 10 10
          10 10 10 10 10 10
        </DataArray>
        <DataArray type="Float64" Name="Phase2::Pressure" format="ascii" RangeMin="-4.6859257481" RangeMax="5.3410276903">
          5.3137726773 5.3410276903 -4.6586276261 -4.6859257481 5.3170087992 5.3267580979
          5.3358025287 5.340325242 -4.6593707957 -4.6636760442 -4.6725458498 -4.682459045
          4.7635704706 4.2129623493 3.6619490624 3.1105392309 2.5587608337 2.0066817727
          1.5057850557 1.0048698263 0.5035655757 0.0017640467278 -0.5006755812 -1.0039514635
          -1.508339752 -1.9579446451 -2.4079073089 -2.8580504726 -3.3082565243 -3.758448971
          -4.2085810713 4.7910716953 4.2411947413 3.6913673875 3.1415345295 2.5916053366
          2.0414387321 1.4908184584 0.99559487419 0.49910044552 0.0016640905815 -0.49648965372
          -0.99521023753 -1.4943927975 -1.9937981917 -2.4414165875 -2.889435425 -3.3378924188
          -3.7867958982 -4.236142361 4.7668059022 4.2161809035 3.6650877045 3.1134422413
          2.5611086927 2.0078793333 1.5081253127 1.0080038053 0.50756796032 0.0068937162658
          -0.49397253697 -0.99500000764 -1.4961579205 -1.9550641542 -2.4064454547 -2.8575309003
          -3.3083495921 -3.7589213474 -4.2092591891 4.7767808818 4.2268551404 3.6770027431
          3.1272638174 2.5777038136 2.0284321853 1.5174961743 1.0162140502 0.51543875023
          0.015147582418 -0.48464134407 -0.983868011 -1.4824183002 -1.9574888993 -2.4096136279
          -2.8611937654 -3.3123303898 -3.7630939509 -4.2135329198 4.7859443269 4.2363792886
          3.6871361291 3.138263199 2.5898307588 2.04193953 1.5178395409 1.0163881648
          0.51561747756 0.015421162239 -0.48425515025 -0.98342404727 -1.482056357 -1.9703576595
          -2.4212746544 -2.8718471146 -3.3221989942 -3.7724053357 -4.2225124933 4.7904449476
          4.2408083149 3.6914270881 3.142321846 2.5935249997 2.0450859279 1.5049259855
          1.0058011813 0.50665794197 0.0074300812827 -0.49193354461 -0.99148904671 -1.4913131674
          -1.9914438242 -2.4382766013 -2.8859808164 -3.3343580925 -3.7832780467 -4.2326598422
        </DataArray>
        <DataArray type="Float64" Name="Phase2::Saturation" format="ascii" RangeMin="0.00090618838652" RangeMax="0.97567920884">
          0.0016308348048 0.00090618838652 0.00090631758614 0.0016310336907 0.0013533677771 0.0013535721736
          0.0013406898107 0.0012462329043 0.0012464015451 0.0013409365728 0.0013538443219 0.0013536199037
          0.0029356002706 0.0045345487645 0.0059231569688 0.0077116044818 0.0086230735143 0.65496024017
          0.97489052274 0.97471849708 0.97478773375 0.97489735536 0.97469712804 0.97531821072
          0.60681162254 0.009043846316 0.0078615289121 0.0064566995893 0.005076416137 0.0036802044029
          0.0022513031418 0.0021780689785 0.0035717744715 0.0049473454822 0.0063045869207 0.0077343108044
          0.008792158428 0.62734362179 0.97522384236 0.97491132009 0.97495671181 0.97482568411
          0.97491838276 0.97492218972 0.71625076437 0.0086393013743 0.0077389280346 0.0059901720462
          0.0047188814224 0.0028939996209 0.0026797446154 0.0042037409859 0.0056506214757 0.0071650823781
          0.0083424763381 0.10874912484 0.97563690686 0.97526713939 0.97529587471 0.97523250503
          0.97515247135 0.97532200994 0.96484653048 0.0098021657329 0.0082123970886 0.0067901615922
          0.0053995307475 0.0039768293753 0.0025200227124 0.0026455161157 0.0041558342298 0.0055966116204