<VTKFile type="UnstructuredGrid" version="0.1" byte_order="LittleEndian">
  <UnstructuredGrid>
    <Piece NumberOfPoints="756" NumberOfCells="3000">
      <PointData Scalars="Phase1::Pressure" Vectors="Phase1::DarcyVelocity">
        <DataArray type="Float64" Name="Phase1::Pressure" format="ascii" RangeMin="-4.7017811327" RangeMax="5.3196923028">
          5.2963480395 5.3137343767 5.3135983823 5.3179485587 -4.6795292955 -4.6917837718
          -4.6954961833 -4.6882878208 5.2975469218 5.3023790918 5.3085539245 5.3128585372
          5.3146064595 5.3170433374 5.3189123402 5.3194241668 5.2976017416 5.3026468333
          5.3093745655 5.3142020711 5.3161389538 5.3175513673 5.3184544139 5.3186372045
          -4.6801843392 -4.6826050333 -4.6877913736 -4.6910076362 -4.6937068065 -4.6946442571
          -4.6981944815 -4.6983009655 -4.6988614502 -4.6998612485 -4.6955420177 -4.6903344963
          -4.6883302825 -4.6858225168 -4.6818087981 -4.6800154145 4.7461949426 4.1958361696
          3.6453537763 3.0949077609 2.5447734999 1.9979175314 1.4931107928 0.9893560923
          0.48605216835 -0.017177389644 -0.52055856774 -1.0241785524 -1.527927313 -1.9783340127
          -2.428606692 -2.8788816068 -3.3291434064 -3.7793578906 -4.2294935717 4.7635393217
          4.2129541412 3.6617505777 3.1094831113 2.5553203278 1.9977297648 1.4961706372
          0.99498700227 0.49384565013 -0.007052214508 -0.50767751274 -1.0079173832 -1.5074905052
          -1.9844448537 -2.4371527424 -2.8890628307 -3.3403366262 -3.7911370369 -4.2415915326
          4.7678135293 4.2174417461 3.6667465614 3.1155643543 2.5636078512 2.0103833199
          1.4998278643 0.99627187071 0.49358455652 -0.0084695813117 -0.51017873684 -1.0118603001
          -1.5139049918 -1.9825260489 -2.4372981424 -2.8907084098 -3.3430368728 -3.7945139278
          -4.2453031734 4.7633762138 4.2127182835 3.6613666402 3.1088123983 2.5540913349
          1.9953986653 1.4945894243 0.99338194261 0.49165052948 -0.010692408667 -0.51408294827
          -1.019395045 -1.5282074797 -1.9817055699 -2.4336818742 -2.8854213784 -3.3367431718
          -3.787644493 -4.2381571153 5.2997058411 5.3060320969 5.3128334165 5.3161576869
          5.3060043432 5.3125097988 5.3173916868 5.3184523079 5.3126326743 5.3172025226
          5.3196923028 5.319670644 5.3160986005 5.3183642379 5.3195246804 5.3195856621
          4.747260947 4.1964646396 3.6451328833 3.0932304389 2.5407180524 1.9875698974
          1.4876049328 0.98696380918 0.48565973935 -0.016369916063 -0.51929268105 -1.0234209318
          -1.5292717501 -1.9785875367 -2.4286310865 -2.8790052971 -3.3294602191 -3.7798535218
          -4.2301077835 4.7520970112 4.201247136 3.6497408225 3.0974195371 2.54403505
          1.9892238386 1.4904798384 0.99080224596 0.49047143815 -0.010401998077 -0.51186595853
          -1.0141537282 -1.517752145 -1.9749264882 -2.4274586564 -2.8794324409 -3.3308865936
          -3.7818733 -4.232437242 4.7583772218 4.2077703342 3.6566114589 3.1046632149
          2.5515098106 1.9964478686 1.4957794799 0.99528319785 0.49483439645 -0.0054219853515
          -0.50525488855 -1.0044451752 -1.5025824503 -1.9781377273 -2.4320519982 -2.8845309627
          -3.3360891879 -3.7870399238 -4.2375714816 4.7628491845 4.2126573873 3.6622598056
          3.1116106201 2.5606568539 2.0093796091 1.4974641009 0.99478889507 0.49277936568
          -0.0090404332348 -0.51112291632 -1.0139779064 -1.518313191 -1.982387138 -2.4362599634
          -2.8885071692 -3.3398117426 -3.7905491962 -4.2409181744 4.7661983666 4.2163305779
          3.6665559326 3.1169121004 2.5674736447 2.0183934444 1.4967409981 0.99469874076
          0.49351308378 -0.0071036652139 -0.50729975221 -1.0070642913 -1.5062826076 -1.9906582201
          -2.4422106556 -2.8929766534 -3.3433600027 -3.7935544469 -4.2436547089 4.7675064648
          4.2173738592 3.6670933107 3.1165533105 2.5655723932 2.0138692136 1.496287626
          0.99354642938 0.49211993943 -0.0086377622886 -0.50910925172 -1.0095435714 -1.5102249573
          -1.9844202661 -2.4385969087 -2.8913023763 -3.3429974118 -3.7939989247 -4.2445114299
          4.7684148478 4.2182767449 3.6679944195 3.1174803453 2.5665856625 2.0150648111
          1.4994466114 0.99593770788 0.49360168885 -0.0079514135271 -0.50886394299 -1.009318939
          -1.5093868311 -1.9924705452 -2.4450648775 -2.896554333 -3.3473912568 -3.7978468166
          -4.2480838726 4.7686382886 4.2185924308 3.668516397 3.118445295 2.5684625378
          2.0187602599 1.4949283756 0.99211234109 0.49062085239 -0.010031212007 -0.51019786275
          -1.0099535823 -1.5092224414 -1.9904920535 -2.4439531106 -2.8959841514 -3.3471673894
          -3.7978358487 -4.2481797113 4.7644338923 4.2139356914 3.6629857907 3.1113579282
          2.5586936435 2.0044657839 1.4965709092 0.99407378649 0.49199601413 -0.010005433673
          -0.51226154367 -1.0151349803 -1.519056189 -1.9814404464 -2.4348524651 -2.8871385812
          -3.3387401263 -3.7897301459 -4.2402144032 4.7669861559 4.2167831572 3.6663815902
          3.1156822469 2.564529519 2.0126954647 1.4975300762 0.99398899346 0.49180567062
          -0.0095941152866 -0.51054807857 -1.0112346607 -1.5116857013 -1.9858998619 -2.4404325592
          -2.8929706241 -3.3443652097 -3.7950990003 -4.2454447067 4.7689386791 4.2189687584
          3.6690032157 3.1190392949 2.5690790203 2.0191426943 1.4971316971 0.99302629853
          0.4909796309 -0.0099337229466 -0.50996815572 -1.0093008328 -1.5078792178 -1.9972943657
          -2.448795662 -2.899479436 -3.3497324109 -3.7997928474 -4.2498066287 4.769512493
          4.2197336542 3.6701559565 3.1209099754 2.5722338247 2.02455747 1.494095984
          0.99120738273 0.48982820145 -0.010554985848 -0.51042077473 -1.0098397604 -1.5087342906
          -1.9917047193 -2.4449855668 -2.8968566739 -3.3479091648 -3.7984807295 -4.2487638762
          4.7473126006 4.1965092291 3.645164115 3.0932378922 2.5406833544 1.9874648892
          1.4875716259 0.98696610011 0.48567800265 -0.016347189541 -0.51926969072 -1.0233930632
          -1.5292190965 -1.9785100071 -2.4285250804 -2.8788737569 -3.3293090695 -3.7796895463
          -4.2299378549 4.7523655945 4.2015246498 3.6500350601 3.0977393385 2.5443936572
          1.9896473937 1.4908551607 0.99112833263 0.490732909 -0.010237863451 -0.51185123018
          -1.0143603944 -1.5182685272 -1.9746851008 -2.4269887406 -2.8788129371 -3.3301743573
          -3.7811080512 -4.2316464687 4.7592378551 4.2087508633 3.65779422 3.1061293478
          2.5533246647 1.9986236946 1.4971649755 0.99649139632 0.49593586748 -0.0044042794045
          -0.50442171311 -1.0040547879 -1.5031856327 -1.9769942093 -2.4304624547 -2.8827194877
          -3.3341879061 -3.7851200201 -4.2356609434 4.7643665091 4.2146814119 3.6652521179
          3.1162731342 2.5681030286 2.0214100637 1.4969416587 0.99515338306 0.49410327581
          -0.0064560308012 -0.50666886933 -1.0064884551 -1.505708338 -1.9810803441 -2.4338696643
          -2.8857375939 -3.3368779082 -3.7876195115 -4.2380874072 -4.6808183492 -4.6836622503
          -4.6889056066 -4.691602908 -4.6843638958 -4.688640196 -4.6945976735 -4.6976669197
          -4.6908829703 -4.6949880104 -4.6999620367 -4.7017811327 -4.6943709928 -4.696227376
          -4.7005726076 -4.7012077026 4.7494450558 4.1986442458 3.647241664 3.0951209313
          2.5420900714 1.9878457909 1.4889133246 0.9891750052 0.48888624655 -0.011782796066
          -0.51271836858 -1.0138248427 -1.5149809768 -1.9744160562 -2.4265588672 -2.8781836629
          -3.3293749467 -3.7801892426 -4.2306632694 4.7559211481 4.2055816825 3.6549950234
          3.1041277284 2.5529281631 2.0013242779 1.4968651953 0.99590040237 0.49528634029
          -0.0049359806288 -0.50467369361 -1.003750893 -1.5018492906 -1.9750432739 -2.4282590276
          -2.8804806807 -3.3319831342 -3.7829494616 -4.2334892341 4.7629080896 4.2131436193
          3.6635870016 3.1143289759 2.565527558 2.0174575802 1.5012536179 0.99892052384
          0.49769157381 -0.0027364098343 -0.50244102591 -1.0014402812 -1.4996889173 -1.9908894968
          -2.4397091795 -2.8891837821 -3.3389731523 -3.788910462 -4.2389032469 4.7663012013
          4.2167520283 3.6675953325 3.1189948145 2.5712251118 2.0247238282 1.4885983378
          0.99020622148 0.49125592157 -0.0078916693481 -0.50702146113 -1.0058625561 -1.5040741965
          -1.9934318296 -2.442637931 -2.8921248451 -3.3418299388 -3.7916686682 -4.2415990925
          4.7559045685 4.2056009867 3.6550823681 3.104328665 2.5533090652 2.0019810461
          1.4968217957 0.99573079584 0.49506282397 -0.0051586372079 -0.50485001433 -1.0038352221
          -1.5017843868 -1.9757332752 -2.4289775219 -2.8812003459 -3.3326976275 -3.783656821
          -4.2341918994 4.7626168217 4.2129552491 3.6635811792 3.1145966965 2.5661664222
          2.0185532675 1.5011019415 0.99881608833 0.49762483082 -0.0026827929421 -0.50219479453
          -1.0009034088 -1.4987097719 -1.9832914956 -2.4354512292 -2.8868437826 -3.3377155767
          -3.7882528515 -4.2385451673 4.7675820507 4.218134204 3.6691354176 3.1206798275
          2.5729111869 2.026033964 1.4973490193 0.99549848754 0.494661715 -0.0055041064924
          -0.50518304535 -1.0044693175 -1.5034011161 -1.9980340878 -2.4470988912 -2.8962093578
          -3.3455036257 -3.7949989713 -4.2446988756 4.7685448006 4.2189018092 3.6695188283
          3.1204450756 2.5717516076 2.0235362251 1.4786817478 0.98290220126 0.48563911384
          -0.012588731174 -0.51146625797 -1.010859099 -1.5107684257 -2.0113531628 -2.4557491168
          -2.9022148406 -3.3499938332 -3.7986428345 -4.247910489 4.76271651 4.2129870915
          3.6635075557 3.1144010779 2.565881864 2.0183159593 1.4998534453 0.99741314776
          0.49618278397 -0.004190805311 -0.5038629067 -1.002902346 -1.5012506714 -1.9936181526
          -2.4425529702 -2.8918078511 -3.341324012 -3.7910365704 -4.2408977979 4.7673782619
          4.2179467523 3.6689457265 3.1204787563 2.5727005253 2.0258314023 1.4902313682
          0.99071292777 0.49140758207 -0.0078048343163 -0.50686831162 -1.0059069327 -1.5049796245
          -2.0026004298 -2.4495015119 -2.8975382036 -3.3462931607 -3.7955294267 -4.2451162971
          4.7698482653 4.2202980184 3.6710839754 3.1222365931 2.573794664 2.0257958266
          1.4828296264 0.98527989334 0.48701142892 -0.011741473635 -0.51085390825 -1.0102917611
          -1.5100608723 -2.0101457777 -2.456752462 -2.9041421334 -3.3522428485 -3.8009531294
          -4.2502066321 4.7697145035 4.2198765038 3.6701335218 3.1204442295 2.5707330951
          2.0208649991 1.4706113947 0.97663354216 0.48069677403 -0.016618636318 -0.51493834037
          -1.0140696131 -1.5139707899 -2.0147366073 -2.4600984684 -2.9067745074 -3.3544668174
          -3.8029537152 -4.2520873964 4.7662345571 4.2166674966 3.6674787081 3.1188244826
          2.5709693942 2.0243403331 1.486867152 0.98865721864 0.48977651727 -0.0095445777805
          -0.50918317363 -1.0090134568 -1.5090821126 -2.0094260518 -2.4526724427 -2.8987716828
          -3.3465258352 -3.7952603755 -4.2446050979 4.7684514285 4.2187101566 3.6691535756
          3.1197675263 2.5705149221 2.0213054694 1.4725714539 0.97990723069 0.48443449313
          -0.012638926783 -0.51068247427 -1.0091597628 -1.5076418857 -1.9922851807 -2.4445744406
          -2.8956006254 -3.3460160308 -3.7961572573 -4.2461991046 4.769574372 4.2197754183
          3.6701256644 3.1206544735 2.5714175172 2.0225250622 1.4933857662 0.99067500221
          0.48949700425 -0.010961990276 -0.51116207276 -1.0113707471 -1.5117972576 -2.0126803488
          -2.4578930179 -2.9047782781 -3.3527650236 -3.8015094038 -4.2508134375 4.7696083555
          4.2196937507 3.6698255839 3.1199749722 2.570083619 2.0200322142 1.4695786001
          0.97683279893 0.48125099224 -0.016021667763 -0.51433717889 -1.0133292292 -1.5128214079
          -2.0126982077 -2.4580039833 -2.9050465322 -3.353190042 -3.8020586575 -4.2514368672
        </DataArray>
        <DataArray type="Float64" Name="Phase1::Saturation" format="ascii" RangeMin="0.00033378202031" RangeMax="0.99899123596">
          0.00087485430915 0.0008407600679 0.000834573664 0.00074708418243 0.99898236093 0.99825833604
          0.99899123596 0.99898413367 0.00080610731517 0.00080251767468 0.00075023134214 0.00069135562743
          0.0007451422084 0.00073358850082 0.00072406909535 0.00064251949678 0.00080596574478 0.00080164606219
          0.00073567883165 0.0005289362388 0.00063212391507 0.00073404186768 0.00072359360043 0.00064205768989
          0.99868984285 0.99865146078 0.99841967147 0.99898671811 0.99818895812 0.99857475962
          0.99837733349 0.99871766916 0.99871799074 0.99838491016 0.99865371243 0.99869205866
          0.99802248604 0.99864641 0.99864836774 0.99868976852 0.0016519918113 0.0024521843655
          0.0032644376801 0.0040255039667 0.0045341312342 0.0090771587698 0.010092444612 0.011341753558
          0.012629649281 0.013975752531 0.015457304248 0.016167190249 0.62315657585 0.98698260298
          0.98891770543 0.9907766247 0.99283710364 0.99485516183 0.99695147456 0.0015162351444
          0.0022168699134 0.0030481963332 0.003787342956 0.0043024649954 0.0074795368658 0.0090139203687
          0.010338538911 0.011717238831 0.012810669574 0.014599813326 0.015564176759 0.024512292546
          0.98233352263 0.98766235041 0.98962345567 0.99176225073 0.99391258938 0.9961454497
          0.0014800964491 0.0022347758057 0.002948719384 0.0036255469152 0.0041987476646 0.0059173918708
          0.0084612019442 0.0098370652608 0.01129048768 0.012712651851 0.014103859837 0.015132078369
          0.020732695069 0.98461435905 0.98791816499 0.99010868098 0.99227986736 0.99450021814
          0.99673161213 0.0016105592551 0.0022608643862 0.0030667394984 0.0037853743594 0.0042858735943
          0.0077736721487 0.0090762457108 0.010496286568 0.011764167792 0.013085603724 0.014657260292
          0.015524794387 0.122484945 0.98638877799 0.98836322184 0.99053529268 0.99263841643
          0.99473738987 0.99686953712 0.00066307187489 0.00065498549386 0.00060413262731 0.00044419695247
          0.00065493849021 0.00065365788477 0.00060905953954 0.00044366165436 0.00060411060724 0.00060881964866
          0.00058144966722 0.0004299925289 0.00044429857667 0.00044356608291 0.00042965855181 0.00033378202031
          0.0014665287164 0.0022315090539 0.0030100449534 0.0038144640628 0.0043495077321 0.0083333342707
          0.0095088910054 0.01087144685 0.012146578493 0.013451240179 0.014935084611 0.015898677816
          0.26674397602 0.9865697506 0.98836000407 0.99043716074 0.99251139755 0.99458274475
          0.99670591799 0.0014482864302 0.002218458289 0.0029657075763 0.0037464460439 0.0042318630267
          0.0075760988674 0.0089629926359 0.010434724535 0.011733917286 0.01309808227 0.014595708994
          0.015632128124 0.029631216349 0.98581974471 0.98799088544 0.99013760321 0.99226565766
          0.99440980981 0.99660012448 0.0013915867953 0.0021772770396 0.0028609517869 0.0036115824806
          0.0041916844178 0.0066958308708 0.0085469827692 0.010081060715 0.011440274689 0.012741645119
          0.014221033513 0.015390467128 0.019970993802 0.98383787309 0.98776589108 0.9897673363
          0.99191646234 0.99410207892 0.99633275061 0.001411013714 0.0021096527155 0.0028851327779
          0.0036310753868 0.0041709784262 0.0057011937594 0.0085554169829 0.0098851948036 0.011355798108
          0.012971279165 0.014268525226 0.015481035008 0.027907828265 0.98550688635 0.98811946602
          0.99027212036 0.99239794454 0.99455569556 0.99672115209 0.0012762380875 0.0020030549572
          0.0027762318483 0.0034329013043 0.0040905854519 0.0052549052174 0.0082889787281 0.0096672885945
          0.01105842583 0.012446708662 0.01393183121 0.015169442725 0.019017070268 0.98179384394
          0.9878825394 0.98972562438 0.99187282784 0.99402212132 0.99623204586 0.0013346994838
          0.0021107634479 0.0028484983598 0.0035107813475 0.0041472446808 0.0056429179685 0.0084198014605
          0.0098028527669 0.011218679876 0.012616752333 0.014037097253 0.015132999402 0.025990182145
          0.98356692847 0.98802380541 0.98994722126 0.99211456366 0.99426497114 0.99642637169
          0.0013177769467 0.0021550718866 0.0028685099208 0.0035983280569 0.0041856882655 0.005697031358
          0.0082704532325 0.0097941054787 0.011163599796 0.012536559785 0.013753635925 0.015143380947
          0.017927101764 0.98155662287 0.98790284323 0.98974478792 0.99193919544 0.99412139626
          0.99635563251 0.0012552764951 0.002077992825 0.002832049529 0.0035240398078 0.0041871111507
          0.0053835992157 0.0083470594819 0.0096221629667 0.011147478976 0.012558199541 0.013894976267
          0.015151317032 0.018776402182 0.98254325001 0.9878072814 0.98985479074 0.99200826091
          0.99423599501 0.99646390962 0.0013715770176 0.0021520943162 0.0029516019738 0.0036242959982
          0.0042405728746 0.0062207982204 0.0086686593802 0.010055335273 0.011438584837 0.012881128346
          0.014344057994 0.015339457149 0.033943531941 0.98548692942 0.98806656979 0.98979947994
          0.99185715414 0.994285856 0.99661076769 0.0013666900601 0.0020940890636 0.0028994035823
          0.0035595275077 0.004152804427 0.0054906063259 0.008262984929 0.0096957499272 0.011115146957
          0.012533089454 0.013916409978 0.015162127385 0.019034483277 0.98402299505 0.98779060903
          0.98980465328 0.99198471251 0.99423381616 0.9964396411 0.0014310135484 0.0021473491794
          0.0028743647625 0.0035133955281 0.0041971016844 0.0053930408957 0.0082789829676 0.0095906520989
          0.011031564129 0.0124229813 0.013664600144 0.015151805982 0.016783787596 0.97964828895
          0.98771653502 0.98959079524 0.99176760473 0.99399201955 0.99623806285 0.0013459582207
          0.0020910406292 0.0027781116326 0.0034833199836 0.004144230614 0.0050573760208 0.0082861220454
          0.0095911554172 0.011008719985 0.012504606028 0.013762590582 0.015155258985 0.017446153529
          0.982146155 0.98778632038 0.9898392646 0.99199821012 0.99423224623 0.99647362448
          0.0014580849978 0.0022558289392 0.003031522698 0.0037981478067 0.0043126325597 0.0083757315426
          0.0095365132478 0.010875346349 0.012145175086 0.0134207553 0.01492232486 0.015890640003
          0.27499466881 0.98662752195 0.98844437898 0.99045538392 0.99251303995 0.99458148727
          0.99667985813 0.0014329767443 0.0022485163004 0.0030186169984 0.0037687316229 0.0042967757348
          0.0076989440365 0.009061863362 0.010467210644 0.011849898706 0.013198159259 0.014588257563
          0.015708022693 0.034943226687 0.9860168807 0.98811460732 0.99026096379 0.99235756792
          0.99448527858 0.99664079867 0.0013533761773 0.0021867218791 0.0029321744471 0.0036475524719
          0.0042695148422 0.0067182415357 0.0086466882078 0.010046046378 0.011505216621 0.012846528485
          0.014187484313 0.01549553691 0.02816495983 0.98380534728 0.98789362943 0.98984585213
          0.99201280643 0.99414755274 0.99644546831 0.0012276636278 0.0019671092808 0.0027150341498
          0.003447542326 0.0041378178527 0.0050720476117 0.0082762692543 0.0096439178063 0.011111858568
          0.012554327748 0.013984959151 0.015242838818 0.02038586515 0.98383207854 0.98792453667
          0.98994291052 0.99225844853 0.99410093854 0.99615203004 0.99824039817 0.99815058646
          0.99814905779 0.99779689778 0.99818150341 0.99779768459 0.99826487489 0.99766526244
          0.99793279808 0.99776319918 0.99797096237 0.99766761282 0.99765534683 0.9983645331
          0.99767485765 0.99753404661 0.0013391585357 0.0020883228721 0.0028264166204 0.00354777995
          0.0041780668192 0.0068768815748 0.0088109781128 0.010255992751 0.011613899328 0.013015721256
          0.014391734579 0.015612081261 0.032885896628 0.98577502189 0.98788601626 0.99003798226
          0.9921224054 0.99420557105 0.99634978216 0.0013138040729 0.0020443746058 0.0027396980554
          0.0034587921208 0.0040806647891 0.0059498183278 0.0082870699565 0.0097607608333 0.011207829841
          0.012610964642 0.014007228326 0.015299263349 0.01954713705 0.98434013661 0.98780285306
          0.98985583393 0.99195702493 0.99408773478 0.99625980691 0.0012571643715 0.0019808707805
          0.0026900014356 0.003381371706 0.0040464726509 0.0052342596813 0.0080977103438 0.0095184209936
          0.010905369454 0.012272450692 0.013653914299 0.015056757031 0.016923466548 0.97281608715
          0.98777871774 0.98960281378 0.99185446265 0.99399049925 0.99621164016 0.001146407209
          0.0018782865666 0.0025927452379 0.0032782807094 0.0039975000642 0.0047744904909 0.0081334577646
          0.0094241991682 0.010836176865 0.012277692805 0.013685736606 0.01505586783 0.017133059654
          0.95243268251 0.98764149357 0.98922161673 0.99146286712 0.99360766969 0.99588247784
          0.0013153796444 0.0020447265375 0.0027543430977 0.0034494769706 0.0040812186863 0.0058436472673
          0.0082683941329 0.0097457268453 0.011171067923 0.012594344229 0.014028729827 0.015311413249
          0.01940777172 0.9841485603 0.98769282633 0.9897537212 0.99187816727 0.99402983921
          0.99622995021 0.0012871239423 0.0019965141545 0.0026869557468 0.0033776074888 0.0040107497555
          0.0051500252631 0.0079035186417 0.0093485381067 0.010803663807 0.012252466252 0.013699970522
          0.015084330879 0.017563423885 0.98175725116 0.98760234832 0.98931098711 0.99146109823
          0.99362318744 0.99587418467 0.0012248277951 0.0018962781927 0.0025828964906 0.0032626363547
          0.0039444930392 0.0048000777569 0.0078198996554 0.0092057854276 0.010630873641 0.012048494695
          0.013448792135 0.014913718331 0.01638929634 0.95739380934 0.9876920729 0.98958923314
          0.99184025348 0.99399009015 0.99622053099 0.0011478979613 0.0018873345402 0.0025912817196
          0.0032822427656 0.0039906758755 0.0046054867235 0.0078610830212 0.0092320955083 0.010580766951
          0.011919439757 0.013279216295 0.014695184747 0.015880340728 0.76425448254 0.98746048672
          0.98900223272 0.99133885935 0.99346658967 0.99574288509 0.0012593031735 0.0019766767567
          0.0026853662445 0.0033651712259 0.004048082089 0.0051268845069 0.0080965550236 0.0094854673217
          0.010884224615 0.012322657231 0.013726192654 0.015059566608 0.016767741616 0.97465678787
          0.98763097582 0.98937372002 0.99156017749 0.99373264937 0.99598341431 0.0012361641363
          0.001910211034 0.0025982472017 0.0032819664632 0.0039725844456 0.0047191757861 0.0078594271911
          0.0091879932178 0.010584218575 0.012020682988 0.013466231931 0.014854026189 0.01615369156
          0.9319740624 0.98753023881 0.98913062785 0.99139584617 0.99355027301 0.99582922738
          0.0011969169488 0.0018623950739 0.0025423952361 0.0032173043953 0.0039166799563 0.0045569386225
          0.007780999786 0.0091264390419 0.010487626175 0.011895227489 0.013315869404 0.014771328455
          0.015890813838 0.90598758362 0.98751736987 0.98927519648 0.99151657062 0.99367368315
          0.99594963802 0.0011026899709 0.001795906951 0.0024951658607 0.0031696498715 0.0038704339361
          0.0044534162652 0.0076483408306 0.009114250662 0.010485651892 0.011825856851 0.013169529116
          0.014569005397 0.015738225803 0.60710246835 0.98736618205 0.98893751912 0.99129092594
          0.99342420399 0.99572576575 0.0011479245781 0.0018737718374 0.0025540732737 0.0032578292561
          0.0039707692473 0.0046800091502 0.00801155639 0.0093462334831 0.010698128374 0.012080809221
          0.013457149157 0.014798754054 0.016011453628 0.80858692075 0.98759936108 0.98908417599
          0.99137669192 0.99348887236 0.99573882764 0.001112955185 0.0017809405866 0.0024765786117
          0.0031662186006 0.0038644028822 0.0044762565301 0.0078159430314 0.009167616647 0.01050480551
          0.011887374293 0.013406535724 0.014916268573 0.017394382166 0.98123643695 0.98781443354
          0.989684943 0.99187987056 0.99405660303 0.99628203072 0.0011609511926 0.0019449776965
          0.0026422053443 0.003335164177 0.0040241286908 0.0048631405624 0.007838848018 0.0093150517519
          0.01070362316 0.012052933323 0.013255184499 0.014593550484 0.015768138224 0.6783431962
          0.98743245778 0.9889814446 0.9913126516 0.99345443735 0.995743489 0.0010460838605
          0.0017468448888 0.0024456976175 0.0031399761022 0.0038412436868 0.0044327332999 0.0075393524763
          0.0090910740276 0.010499176652 0.011794797976 0.01317284168 0.014538837234 0.015710983209
          0.51564487219 0.98730306122 0.9887872834 0.99120613935 0.99332092174 0.99563442711
        </DataArray>
        <DataArray type="Float64" Name="Phase1::RelativePermeability" format="ascii" RangeMin="1.1141043708e-07" RangeMax="0.99798348952">
          7.6537006223e-07 7.0687749177e-07 6.9651320065e-07 5.5813477563e-07 0.99796575744 0.99651970548
          0.99798348952 0.99796929931 6.4980900356e-07 6.4403461818e-07 5.6284706673e-07 4.7797260358e-07
          5.5523691075e-07 5.3815208854e-07 5.2427605483e-07 4.1283130374e-07 6.4958078176e-07 6.4263640903e-07
          5.4122334334e-07 2.7977354471e-07 3.9958064401e-07 5.3881746351e-07 5.2358769859e-07 4.1223807714e-07
          0.99738140222 0.99730474012 0.99684184038 0.99797446297 0.99638119612 0.99715155054
          0.99675730003 0.99743698269 0.99743762502 0.99677242883 0.99730923735 0.99738582804
          0.99604888264 0.9972946522 0.99729856239 0.99738125374 2.7290769446e-06 6.0132081624e-06
          1.0656553367e-05 1.6204682186e-05 2.0558346049e-05 8.2394811332e-05 0.00010185743824 0.00012863537377
          0.00015950804096 0.0001953216588 0.0002389282546 0.00026137804054 0.38832411803 0.97413465858
          0.97795822812 0.98163832005 0.98572551436 0.98973679302 0.99391224264 2.2989690131e-06
          4.9145122131e-06 9.2915008859e-06 1.4343966666e-05 1.8511205036e-05 5.5943471726e-05 8.1250760413e-05
          0.00010688538681 0.00013729368583 0.00016411325493 0.00021315454915 0.00024224359818 0.00060085248586
          0.96497914968 0.97547691842 0.97935458401 0.98359236197 0.98786223533 0.99230575696
          2.1906854986e-06 4.9942229016e-06 8.6949460055e-06 1.3144590434e-05 1.7629481951e-05 3.5015526553e-05
          7.1591938341e-05 9.6767852945e-05 0.00012747511206 0.00016161151708 0.00019891886229 0.00022897979575
          0.00042984464483 0.96946543605 0.97598230071 0.98031520015 0.98461933517 0.98903068388
          0.99347390661 2.5939011141e-06 5.1115077729e-06 9.4048911509e-06 1.4329059041e-05 1.8368712466e-05
          6.0429978676e-05 8.2378236203e-05 0.00011017203172 0.00013839564383 0.00017123302482 0.00021483527928
          0.00024101924077 0.015002561752 0.97296282134 0.97686185828 0.98116016604 0.98533102578
          0.98950247481 0.99374887403 4.3966431128e-07 4.2900599716e-07 3.6497623138e-07 1.9731093258e-07
          4.2894442595e-07 4.2726863032e-07 3.7095352271e-07 1.9683566355e-07 3.6494962578e-07 3.7066136459e-07
          3.380837155e-07 1.8489357491e-07 1.9740122523e-07 1.9675086991e-07 1.8460647114e-07 1.1141043708e-07
          2.1507064759e-06 4.9796326578e-06 9.0603706215e-06 1.4550136087e-05 1.8918217512e-05 6.9444460067e-05
          9.0419008152e-05 0.00011818835661 0.00014753936909 0.00018093586234 0.00022305675234 0.00025276795629
          0.071152348741 0.9733198728 0.97685549765 0.98096576937 0.98507887428 0.98919483616
          0.99342268695 2.0975335839e-06 4.9215571799e-06 8.7954214282e-06 1.403585796e-05 1.7908664677e-05
          5.7397274049e-05 8.0335236992e-05 0.00010888347612 0.00013768481486 0.00017155975916 0.00021303472103
          0.00024436342969 0.00087800898233 0.97184056906 0.9761259897 0.98037247329 0.98459113538
          0.98885086985 0.99321180811 1.9365138088e-06 4.7405353074e-06 8.1850451272e-06 1.3043528014e-05
          1.7570218258e-05 4.483415105e-05 7.3050914458e-05 0.00010162778514 0.00013087988495 0.00016234952033
          0.00020223779417 0.0002368664784 0.00039884059344 0.96793696052 0.97568145557 0.97963938001
          0.98389826825 0.98823894332 0.99267894993 1.9909597012e-06 4.45063458e-06 8.3239911459e-06
          1.3184708465e-05 1.7397061032e-05 3.2503610283e-05 7.319515975e-05 9.7717076304e-05 0.00012895415066
          0.00016825408319 0.00020359081214 0.00023966244492 0.00077884687844 0.97122382304 0.97638007913
          0.98063887236 0.98485368032 0.98914103157 0.99345305503 1.6287836561e-06 4.0122291618e-06
          7.7074632753e-06 1.1784811365e-05 1.6732889339e-05 2.7614028843e-05 6.8707168355e-05 9.3456468769e-05
          0.00012228878185 0.00015492055651 0.00019409592085 0.00023011199259 0.00036164896158 0.96391915201
          0.97591191166 0.97955681155 0.98381170662 0.98807997767 0.99247828921 1.7814227121e-06
          4.4553223332e-06 8.1139429057e-06 1.232558567e-05 1.7199638442e-05 3.18425232e-05 7.0893056635e-05
          9.609592237e-05 0.00012585877816 0.00015918243943 0.00019704009929 0.00022900767089 0.00067548956791
          0.96740390278 0.97619104005 0.97999550089 0.98429130743 0.98856283283 0.9928655142
          1.7365360813e-06 4.6443348366e-06 8.2283491659e-06 1.2947964805e-05 1.7519986256e-05 3.2456166294e-05
          6.8400396672e-05 9.5924502128e-05 0.00012462596041 0.00015716533124 0.00018916250117 0.00022932198649
          0.00032138097765 0.96345340391 0.97595202767 0.97959474521 0.98394336745 0.9882773505
          0.99272454643 1.5757190791e-06 4.3180541805e-06 8.0205045347e-06 1.2418856567e-05 1.7531899788e-05
          2.8983140515e-05 6.9673401994e-05 9.2586020158e-05 0.00012426628753 0.0001577083757 0.00019307036546
          0.00022956240779 0.00035255327888 0.96539123813 0.97576322519 0.97981250676 0.98408038971
          0.98850521378 0.99294032318 1.8812235153e-06 4.631509946e-06 8.711954212e-06 1.3135521483e-05