<VTKFile type="UnstructuredGrid" version="0.1" byte_order="LittleEndian">
  <UnstructuredGrid>
    <Piece NumberOfPoints="126" NumberOfCells="200">
      <PointData Scalars="Phase1::Pressure" Vectors="Phase1::DarcyVelocity">
        <DataArray type="Float64" Name="Phase1::Pressure" format="ascii" RangeMin="-4.6749781306" RangeMax="5.3521573107">
          5.3250218693 5.3521573107 -4.647842687 -4.6749781306 5.3282637614 5.3378360985
          5.3468057608 5.3513513496 -4.6486486483 -4.6531942355 -4.6621638956 -4.6717362361
          4.7748193126 4.2242094269 3.6731903271 3.1217655248 2.5699541482 2.0178090942
          1.5169204106 1.0160647708 0.51478818875 0.012983494499 -0.4894970792 -0.99286678066
          -1.4974359582 -1.9470508436 -2.3970367106 -2.8472066923 -3.2974370546 -3.7476483694
          -4.1977921728 4.8022078249 4.2523516282 3.7025629429 3.1527933051 2.6029632867
          2.0529491535 1.5025640386 1.0071332162 0.51050291722 0.012983490856 -0.48521181458
          -0.9839352331 -1.4830795939 -1.9821909117 -2.4300458553 -2.8782344772 -3.3268096739
          -3.7757905733 -4.2251806874 4.7780670342 4.2274610517 3.6764025921 3.1248134256
          2.5725678283 2.0194779445 1.5196049161 1.0194613179 0.51904093497 0.018417814725
          -0.48235623919 -0.98323718514 -1.4841702089 -1.9440485796 -2.3955424763 -2.8467031237
          -3.297572108 -3.7481758188 -4.19853134 4.7878562225 4.2379209378 3.6880503539
          3.1382809494 2.5886723828 2.0393279538 1.5285921825 1.0273437985 0.52659481913
          0.026324339967 -0.47344826274 -0.97266309885 -1.4712040446 -1.9471488312 -2.3992374763
          -2.8507801507 -3.3018868259 -3.7526289815 -4.20305519 4.7969448063 4.2473710148
          3.6981131705 3.1492198456 2.6007625202 2.0528511651 1.5287959556 1.0273369017
          0.52655173788 0.026324340655 -0.47340518001 -0.97265620026 -1.4714078162 -1.9606720401
          -2.411327611 -2.8617190445 -3.3119496401 -3.7620790562 -4.2121437714 4.8014686579
          4.2518241792 3.7024278901 3.1532968746 2.6044575226 2.0559514196 1.5158297964
          1.0167628176 0.5176437622 0.018417815361 -0.48095906462 -0.98053868156 -1.4803950827
          -1.9805220532 -2.4274321696 -2.8751865724 -3.3235974057 -3.772538946 -4.2219329633
        </DataArray>
        <DataArray type="Float64" Name="Phase1::Saturation" format="ascii" RangeMin="0.00044066462382" RangeMax="0.9986600782">
          0.0007937943886 0.00044066462382 0.9986600782 0.99758611303 0.00065798315312 0.00065682322491
          0.00064857399372 0.00061186724588 0.99813930287 0.99802726575 0.99800170108 0.99799818912
          0.001852449786 0.0027101145693 0.0035050009808 0.0042666198623 0.0050067581101 0.0094701216823
          0.010598909958 0.011883530261 0.013229920929 0.014592827039 0.015956585133 0.017314884904
          0.36384439482 0.98584368253 0.98789607159 0.98995445656 0.99202540917 0.99412064203
          0.99627115611 0.0012256497154 0.0019314956247 0.0026183701981 0.0032965418063 0.0039699906197
          0.0046409522387 0.0074579002078 0.0091112431092 0.010542073304 0.011908044817 0.013255300985
          0.014599113033 0.015994110114 0.34809743338 0.98484466452 0.98707409111 0.98937195627
          0.99177454403 0.99437231772 0.0016059697839 0.0024345960141 0.0032176513883 0.0039731727064
          0.0047096684525 0.0078034224963 0.0096017082504 0.011109130449 0.012537910736 0.013943014567
          0.015338676427 0.01672953867 0.032607451048 0.98394748908 0.98703306565 0.98912044416
          0.99122108602 0.99335573286 0.99557592821 0.0015742704565 0.002353292778 0.0030985994923
          0.0038278577846 0.0045473292003 0.0066407703569 0.0089406518239 0.01041913708 0.011888855435
          0.013338769714 0.014774903782 0.016204854751 0.022422906359 0.98017577255 0.98649962853
          0.988639912 0.99079586255 0.9929950286 0.99530591605 0.001542388598 0.0023001922872
          0.0030204777472 0.0037256939612 0.0044245817094 0.0057891640653 0.0086224010143 0.010017353373
          0.0114283135 0.012848040467 0.014267944938 0.01568559611 0.01847770352 0.97304794379
          0.98616650747 0.98835602181 0.99057420726 0.99284120358 0.99521096376 0.0014537779629
          0.0021817346176 0.0028806410102 0.0035674111563 0.0042488287883 0.0051124155001 0.0083968074542
          0.0097143866022 0.011072227307 0.012438326009 0.013806458812 0.015174727624 0.016571261575
          0.86818651662 0.98572949148 0.98795222149 0.99023573414 0.99260622097 0.99511852506
        </DataArray>
        <DataArray type="Float64" Name="Phase1::RelativePermeability" format="ascii" RangeMin="1.9418531069e-07" RangeMax="0.99732195179">
          6.3010953138e-07 1.9418531069e-07 0.99732195179 0.9951780529 4.3294182979e-07 4.3141674879e-07
          4.2064822533e-07 3.7438152658e-07 0.99628206794 0.99605842318 0.99600739537 0.99600038548
          3.4315702096e-06 7.344720979e-06 1.2285031876e-05 1.8204045049e-05 2.5067626773e-05 8.9683204677e-05
          0.00011233689231 0.00014121829147 0.00017503080777 0.00021295060099 0.00025461260911 0.00029980523924
          0.13238274364 0.97188776639 0.97593864827 0.98000982607 0.98411441245 0.98827585091
          0.9925562165 1.5022172249e-06 3.7306753481e-06 6.8558624941e-06 1.0867187881e-05 1.5760825521e-05
          2.1538437682e-05 5.5620275509e-05 8.3014750995e-05 0.00011113530954 0.00014180153135 0.00017570300422
          0.00021313410136 0.00025581155833 0.12117182313 0.96991901323 0.97431526133 0.97885686785
          0.9836167462 0.98877630625 2.5791389467e-06 5.9272577519e-06 1.0353280457e-05 1.5786101355e-05
          2.2180976932e-05 6.0893402656e-05 9.2192801327e-05 0.00012341277934 0.00015719920562 0.00019440765523
          0.00023527499454 0.0002798774641 0.0010632458638 0.96815266126 0.97423427268 0.97835925306
          0.98251924138 0.986755612 0.99117142883 2.4783274702e-06 5.5379868992e-06 9.6013188134e-06
          1.4652495219e-05 2.0678202856e-05 4.4099830933e-05 7.9935255036e-05 0.00010855841749 0.00014134488354
          0.00017792277749 0.00021829778178 0.00026259731752 0.00050278672961 0.96074454509 0.97318151709
          0.97740887561 0.98167644125 0.98603912683 0.99063386652 2.3789625874e-06 5.290884558e-06
          9.1232858215e-06 1.3880795492e-05 1.9576923303e-05 3.3514420575e-05 7.4345799252e-05 0.0001003473686
          0.00013060634946 0.00016507214384 0.00020357425274 0.00024603792533 0.00034142552737 0.94682230092
          0.97252438046 0.97684762586 0.98123726009 0.98573365553 0.99044486239 2.1134703653e-06
          4.7599659416e-06 8.2980926295e-06 1.2726422358e-05 1.8052546073e-05 2.6136792245e-05 7.0506375423e-05
          9.4369307058e-05 0.00012259421754 0.00015471195391 0.00019061830493 0.00023027235847 0.00027460671019
          0.75374782763 0.97166263037 0.97604959195 0.98056680918 0.9852671099 0.99026087892
        </DataArray>
        <DataArray type="Float64" Name="Phase1::Density" format="ascii" RangeMin="0.9" RangeMax="0.9">
          0.9 0.9 0.9 0.9 0.9 0.9
          0.9 0.9 0.9 0.9 0.9 0.9
          0.9 0.9 0.9 0.9 0.9 0.9
          0.9 0.9 0.9 0.9 0.9 0.9
          0.9 0.9 0.9 0.9 0.9 0.9
          0.9 0.9 0.9 0.9 0.9 0.9
          0.9 0.9 0.9 0.9 0.9 0.9
          0.9 0.9 0.9 0.9 0.9 0.9
          0.9 0.9 0.9 0.9 0.9 0.9
          0.9 0.9 0.9 0.9 0.9 0.9
          0.9 0.9 0.9 0.9 0.9 0.9
          0.9 0.9 0.9 0.9 0.9 0.9
          0.9 0.9 0.9 0.9 0.9 0.9
          0.9 0.9 0.9 0.9 0.9 0.9
          0.9 0.9 0.9 0.9 0.9 0.9
          0.9 0.9 0.9 0.9 0.9 0.9
          0.9 0.9 0.9 0.9 0.9 0.9
          0.9 0.9 0.9 0.9 0.9 0.9
          0.9 0.9 0.9 0.9 0.9 0.9
          0.9 0.9 0.9 0.9 0.9 0.9
          0.9 0.9 0.9 0.9 0.9 0.9
        </DataArray>
        <DataArray type="Float64" Name="Phase1::DarcyVelocityOverPorosityCFL" format="ascii" RangeMin="2.0100011495e-06" RangeMax="0.17399485079">
          4.3545077159e-06 2.0100011495e-06 0.001712804704 0.01034522544 3.4912018596e-06 3.4779924782e-06
          3.3886672052e-06 3.014254068e-06 0.0056813792657 0.014409028944 0.025678896734 0.025009979014
          1.5874642408e-05 3.4119477952e-05 5.7317303894e-05 8.5316354127e-05 0.00011802460188 0.0002087970531
          0.0002617015118 0.00033142090034 0.00041427241176 0.00050918570155 0.00061662243041 0.00073812748441
          0.013626698579 0.021749043088 0.017540656213 0.017071353116 0.013974937073 0.0092341911355
          0.0035637155904 6.9054427502e-06 1.7127644368e-05 3.1441877188e-05 4.980308744e-05 7.2221493879e-05
          9.8773306069e-05 0.00014221879891 0.00017755935894 0.0002421695552 0.00031334264545 0.00039251063534
          0.00048038243254 0.00057776943769 0.068659607958 0.10346967416 0.08315137507 0.063167407
          0.043856696694 0.025158377677 1.1926939262e-05 2.7513027492e-05 4.8260765405e-05 7.3950546294e-05
          0.00010453160657 0.000161603742 0.00021382556153 0.00028724135078 0.00036718961694 0.00045554108422
          0.00055297223951 0.00065974151613 0.00087422392062 0.068297320567 0.051611604738 0.038479624239
          0.026996663014 0.016949816774 0.0097388086822 1.1427999819e-05 2.5533257679e-05 4.4257326932e-05
          6.7510840398e-05 9.5188337042e-05 0.00013875424456 0.00018922507419 0.00025465763615 0.00032892819605
          0.00041080463846 0.00049980657627 0.00059532734523 0.00072235557104 0.13124184619 0.065774501725
          0.047769924816 0.033625648056 0.02309643583 0.017575808591 1.0939163137e-05 2.4266098588e-05
          4.172155574e-05 6.326105752e-05 8.8839949672e-05 0.00012295592023 0.00017933122943 0.00023414800851
          0.00030186214848 0.00037833198722 0.00046286350192 0.00055479197009 0.00065711006178 0.17399485079
          0.041303298445 0.032044849652 0.0280235768 0.025729496784 0.025715062661 9.7102460008e-06
          2.1818860191e-05 3.7944353715e-05 5.804098685e-05 8.2092332016e-05 0.00011126853085 0.00016650527649
          0.00021170818289 0.00027589447452 0.00034927374312 0.00043174669395 0.0005234837651 0.00062538132031
          0.16783151736 0.11718743313 0.088151702475 0.064576268632 0.044782332662 0.027691116207
        </DataArray>
        <DataArray type="Float64" Name="Phase1::DivergenceTotalDarcyVelocity" format="ascii" RangeMin="-4.5672918932e-08" RangeMax="6.2157225876e-08">
          3.6963930614e-09 5.3687456068e-09 5.3694409078e-09 3.6990917624e-09 2.0943327324e-08 2.3024461678e-08
          1.3579703096e-08 7.489910699e-09 6.1073516968e-09 1.2080803855e-08 1.8462581267e-08 1.0443318474e-08
          -1.88233915e-08 -7.3044863561e-09 -1.0673221855e-08 8.8696146781e-09 1.2607991907e-08 -8.9901495197e-09
          2.3686529349e-08 6.6658724832e-09 -1.3011979372e-08 3.0919559495e-08 1.4880543033e-08 -1.0256890361e-08
          1.2400193327e-08 1.185044145e-08 1.0875380786e-08 -9.6278756366e-09 -2.2589436079e-09 1.4739124909e-08
          2.5935520449e-09 -1.6827868417e-09 7.8772603024e-09 -2.2740077616e-09 -9.209884526e-09 3.4827789687e-09
          1.0504936298e-08 1.3111189784e-08 -3.1789607883e-08 -1.044622561e-08 -1.4301142993e-08 -1.9455734818e-08
          6.8700367864e-10 -4.3445436044e-08 1.775050684e-08 -8.3164572163e-09 -1.7464255855e-08 -3.7306644742e-09
          3.2993920628e-08 1.4539808056e-08 -3.205931447e-08 -4.9280311169e-09 -9.7990452558e-09 -4.7000497244e-09
          -1.173301829e-08 7.35130984e-09 -4.5672918932e-08 6.2157225876e-08 8.7613888475e-09 7.71888249e-09
          1.1342764584e-09 1.0012273396e-08 8.4507624612e-09 -2.7617190992e-09 1.5598320266e-09 -8.249322555e-10
          2.8292161586e-10 -5.0576809206e-09 -9.5626044452e-09 -3.2045120106e-08 -5.9019904578e-09 -3.4473233784e-09
          -2.5899278707e-09 -1.5616065645e-08 4.3747425475e-09 6.481883198e-09 3.3251768262e-09 5.9124480177e-09
          5.8213216538e-09 4.7139027953e-09 1.7569881187e-09 -7.2949466703e-09 1.1663994574e-08 -1.087963483e-08
          8.1500275596e-10 -1.9477108318e-09 -7.3003726993e-09 -2.352046972e-08 -7.0114477484e-09 5.6842411854e-09
          1.1653453376e-08 4.3021432337e-09 -3.221172374e-09 2.2620242525e-09 1.0414233112e-08 -1.6277390646e-08
          -1.7731693711e-09 -5.2972106932e-09 -5.2695747073e-09 -4.3821125399e-09 -3.9135049263e-09 -1.284194683e-09
          -6.7476965985e-09 6.6411564854e-09 1.0528793027e-09 -5.4843773293e-09 8.7507988951e-09 1.3446860227e-08
          1.2988394995e-08 3.4080426849e-09 -4.3398960207e-09 -2.509722161e-09 -2.5349071692e-09 1.0098556441e-08
          -2.1996901659e-08 -1.6427544414e-08 -2.243088998e-08 -1.7106564094e-08 2.1701086724e-08 -3.1350645277e-09
          1.1399556504e-08 -5.1822726051e-09 4.86966739e-09 1.1713147649e-08 1.8735023264e-08 1.8245771127e-08
        </DataArray>
        <DataArray type="Float64" Name="Phase1::Mobility" format="ascii" RangeMin="1.9596082359e-07" RangeMax="0.99590768389">
          6.1097547483e-07 1.9596082359e-07 0.99590768389 0.99412065996 4.3676493804e-07 4.3450529716e-07
          4.2084866289e-07 3.636157461e-07 0.99508565135 0.9953513832 0.99521629017 0.99517952942
          2.6874668369e-06 6.2766568833e-06 1.0931615142e-05 1.6590793415e-05 2.3214370169e-05 7.0523883034e-05
          0.00010405770544 0.00013245716884 0.00016555840383 0.00020281862907 0.0002439124248 0.00028866034769
          0.33512155679 0.97157802138 0.9746035253 0.97870156002 0.98283084077 0.98701689208
          0.9913234814 1.0065528049e-06 2.9613689258e-06 5.8283149458e-06 9.5929021637e-06 1.4250386496e-05
          1.9802579856e-05 4.2844455182e-05 7.5466555646e-05 0.00010279330043 0.00013269869338 0.00016586694869
          0.00020259241181 0.00024394461707 0.31673216051 0.97108450858 0.97552884043 0.98013077801
          0.98498133791 0.99038272779 1.8214892927e-06 4.7993488184e-06 8.8894599113e-06 1.4012969193e-05
          2.0122093096e-05 4.5256172549e-05 8.3427683802e-05 0.00011353371178 0.0001462589297 0.00018246846246
          0.00022238835282 0.00026608640094 0.00070986241595 0.68153202869 0.97234814458 0.97682743245
          0.98100152135 0.98528779535 0.99031829 1.7321810923e-06 4.4383922896e-06 8.1731722428e-06
          1.2911463205e-05 1.8635639089e-05 3.4622061079e-05 6.878961304e-05 9.9414461776e-05 0.00013095048921
          0.00016630763851 0.00020548171418 0.00024855778371 0.00039893895957 0.60853528016 0.96936221056
          0.97584457473 0.98014205031 0.98452475953 0.99038266789 1.6432763296e-06 4.2049779596e-06
          7.7113028706e-06 1.2155176105e-05 1.7543614288e-05 2.781934054e-05 6.0763380059e-05 9.1562284858e-05
          0.00012058188302 0.00015381232547 0.00019109440831 0.00023234369748 0.00030233630653 0.58994676917
          0.96546496231 0.97709606446 0.98207777409 0.98635003579 0.99123085065 1.4138767472e-06
          3.7204368612e-06 6.9391007295e-06 1.1059731642e-05 1.6085884375e-05 2.2961794957e-05 5.368307743e-05
          8.5370233067e-05 0.0001124993266 0.00014353520357 0.00017839803514 0.00021706024483 0.0002602061037
          0.52789459142 0.97149855623 0.97727503786 0.98185842986 0.98666199404 0.9910733026
        </DataArray>
        <DataArray type="Float64" Name="Phase1::TotalMobility" format="ascii" RangeMin="0.56037338794" RangeMax="0.99590869603">
          0.99412391336 0.99590859261 0.99590869603 0.99412381667 0.99518182328 0.99521848094
          0.99535352998 0.99508742809 0.99508752988 0.99535355844 0.99521853725 0.99518178831
          0.99039661951 0.98501372833 0.98018701798 0.9756139061 0.97120332821 0.61108641421
          0.83843151683 0.94787710906 0.94788806621 0.94785714459 0.94785104905 0.94793491227
          0.7394989203 0.97168109058 0.97467760272 0.97875136043 0.98286105646 0.98703222412
          0.99132868645 0.99132842507 0.98703226965 0.9828610824 0.97875142592 0.97467766366
          0.97168135265 0.73949920987 0.94793551165 0.94785152549 0.94785744597 0.94788824445
          0.9478774123 0.83843154332 0.61108630448 0.97120322413 0.97561385152 0.98018690697
          0.9850136338 0.99039658506 0.99108303496 0.9866869361 0.98190434226 0.97734713672
          0.9716018645 0.70619928562 0.80221134387 0.94829484831 0.94815655974 0.94808714282
          0.94804267588 0.94740152067 0.56037338794 0.68165653634 0.97243189594 0.97688492261
          0.98103753474 0.98530707404 0.99032560582 0.9912400411 0.9863732532 0.98212016169
          0.97716292505 0.96556137624 0.59024898796 0.6587865049 0.94790981162 0.9484545268
          0.94839529981 0.94836777737 0.94573174647 0.59512122109 0.6087096864 0.96945349177
          0.97590772999 0.98018206457 0.98454655128 0.99039117319 0.9903910514 0.9845464455
          0.98018186438 0.97590754403 0.96945327302 0.60870953181 0.59512132213 0.94573176924
          0.94836774661 0.94839527198 0.94845444627 0.94790972584 0.6587865563 0.59024910793
          0.96556134254 0.97716283556 0.98212004386 0.98637299162 0.99123980939 0.99032546373
          0.98530706563 0.98103741345 0.976884792 0.97243173476 0.68165656756 0.56037361773
          0.94740193135 0.94804286348 0.94808725961 0.94815670492 0.94829490569 0.80221133912
          0.70619930114 0.97160178689 0.97734703939 0.98190417966 0.98668673458 0.99108270733
        </DataArray>
        <DataArray type="Float64" Name="Phase1::FractionalFlow" format="ascii" RangeMin="1.9676587294e-07" RangeMax="0.9999989837">
          6.1458684035e-07 1.9676587294e-07 0.9999989837 0.99999682463 4.3887953721e-07 4.3659287431e-07
          4.2281325199e-07 3.6541085319e-07 0.9999981122 0.99999781461 0.99999774212 0.99999773018
          2.7135258582e-06 6.3721516795e-06 1.115258103e-05 1.7005490913e-05 2.3902688031e-05 0.00011540738166
          0.00012410996409 0.0001397408668 0.00017466028926 0.00021397594588 0.00025733201967 0.00030451494502
          0.45317382837 0.99989392693 0.99992399802 0.99994911843 0.99996925742 0.99998446653
          0.99999474941 1.015357554e-06 3.0002756919e-06 5.929947833e-06 9.8011628996e-06 1.4620614616e-05
          2.0379705551e-05 5.7937120973e-05 7.9611486983e-05 0.00010844873661 0.00013999857674 0.00017498576405
          0.00021373271394 0.00029095352985 0.51831002951 0.99987776446 0.999912864 0.99994273648
          0.99996721275 0.99998600836 1.8378775829e-06 4.8641049585e-06 9.0532850592e-06 1.4337760522e-05
          2.0710224868e-05 6.4084138104e-05 0.00010399713796 0.00011972406259 0.00015425609642 0.00019245958965
          0.0002345763102 0.00028085916598 0.0012667668223 0.99981734547 0.99991387432 0.99994114951
          0.9999632905 0.99998043383 0.99999261272 1.7474890243e-06 4.4997086805e-06 8.3219676793e-06
          1.3213214371e-05 1.9300315389e-05 5.8656705535e-05 0.00010441867362 0.00010487755328 0.00013806722991
          0.00017535687761 0.00021666880622 0.00026282059859 0.00067034907417 0.99971348207 0.99990584261
          0.99993528563 0.9999591767 0.9999778662 0.99999141218 1.6592196862e-06 4.2709797784e-06
          7.8672164328e-06 1.2455253758e-05 1.809640008e-05 4.5702160204e-05 0.00010210250885 9.6816336129e-05
          0.00012714675657 0.00016218166625 0.00020147979595 0.00024511162945 0.00045892907746 0.9994877777
          0.99990018218 0.9999316684 0.99995696069 0.99997672703 0.99999096208 1.427688976e-06
          3.7759161493e-06 7.0732274166e-06 1.1321428824e-05 1.6541916312e-05 3.3685283836e-05 9.57987238e-05
          9.010983643e-05 0.00011866481036 0.00015139450733 0.00018815247966 0.00022889529779 0.00032436103931
          0.74751502949 0.99989375209 0.99992632962 0.99995340705 0.99997492564 0.99999051065
        </DataArray>
        <DataArray type="Float64" Name="Phase1::SumSaturation" format="ascii" RangeMin="0.99999980104" RangeMax="1.0000002598">
          0.99999998206 0.99999998328 0.99999998332 0.99999998207 0.99999995293 0.99999994592
          0.99999997076 0.99999995881 0.99999996533 0.99999996036 0.99999995554 0.99999998294
          1.0000000414 1.0000000407 1.0000000281 1.0000000009 1.0000000231 1.0000000348
          0.99999995977 0.99999982669 0.99999995015 0.99999986076 0.99999980104 0.99999987998
          0.99999984263 0.99999993221 0.99999998742 0.99999994853 0.99999995404 0.99999997863
          0.99999998151 0.99999980471 0.99999999931 0.99999998521 1.0000000132 1.0000000327
          1.000000116 1.0000001336 1.0000002036 1.0000001045 1.0000000822 1.0000000015
          1.000000043 1.0000000391 1.0000000105 0.99999995976 0.99999997017 0.99999999585
          0.99999995553 1.000000099 1.0000001067 1.0000000541 1.0000000878 1.0000000138
          1.0000000253 0.99999996586 1.0000000225 0.99999989926 0.99999996591 0.99999998379
          0.99999993273 0.99999991674 0.99999993747 0.9999999757 1.0000000871 1.0000000077
          1.0000000023 1.0000000095 1.0000001513 1.0000002598 1.0000001065 1.0000000293
          1.0000000203 1.0000000106 0.99999998698 0.99999989266 1.0000001292 1.0000000086
          1.0000000355 0.99999999419 1.0000000021 1.0000000409 0.99999999208 1.0000000992
          1.000000036 1.000000045 1.0000000351 1.0000001527 0.99999999895 1.0000000064
          0.99999992218 0.99999996574 0.9999999293 0.99999986659 1.0000001107 0.99999995596
          0.99999994689 1.0000000095 0.99999996741 1.0000000098 0.999999961 1.0000000969
          0.99999984767 0.99999996053 0.99999993463 0.99999994378 0.99999997125 0.99999999639
          1.0000000305 0.99999992346 0.9999999518 0.99999994645 1.0000000129 0.99999991326
          1.0000001992 1.0000000631 1.000000079 1.0000000498 0.99999998341 1.0000000329
          0.9999999038 0.99999998451 1.0000000023 0.99999999212 0.99999999195 0.9999998757
        </DataArray>
        <DataArray type="Float64" Name="Phase1::AveragePressure" format="ascii" RangeMin="-4.6749781306" RangeMax="5.3521573107">
          5.3250218693 5.3521573107 -4.647842687 -4.6749781306 5.3282637614 5.3378360985
          5.3468057608 5.3513513496 -4.6486486483 -4.6531942355 -4.6621638956 -4.6717362361
          4.7748193126 4.2242094269 3.6731903271 3.1217655248 2.5699541482 2.0178090942
          1.5169204106 1.0160647708 0.51478818875 0.012983494499 -0.4894970792 -0.99286678066
          -1.4974359582 -1.9470508436 -2.3970367106 -2.8472066923 -3.2974370546 -3.7476483694
          -4.1977921728 4.8022078249 4.2523516282 3.7025629429 3.1527933051 2.6029632867
          2.0529491535 1.5025640386 1.0071332162 0.51050291722 0.012983490856 -0.48521181458
          -0.9839352331 -1.4830795939 -1.9821909117 -2.4300458553 -2.8782344772 -3.3268096739
          -3.7757905733 -4.2251806874 4.7780670342 4.2274610517 3.6764025921 3.1248134256
          2.5725678283 2.0194779445 1.5196049161 1.0194613179 0.51904093497 0.018417814725
          -0.48235623919 -0.98323718514 -1.4841702089 -1.9440485796 -2.3955424763 -2.8467031237
          -3.297572108 -3.7481758188 -4.19853134 4.7878562225 4.2379209378 3.6880503539
          3.1382809494 2.5886723828 2.0393279538 1.5285921825 1.0273437985 0.52659481913
          0.026324339967 -0.47344826274 -0.97266309885 -1.4712040446 -1.9471488312 -2.3992374763
          -2.8507801507 -3.3018868259 -3.7526289815 -4.20305519 4.7969448063 4.2473710148
          3.6981131705 3.1492198456 2.6007625202 2.0528511651 1.5287959556 1.0273369017
          0.52655173788 0.026324340655 -0.47340518001 -0.97265620026 -1.4714078162 -1.9606720401
          -2.411327611 -2.8617190445 -3.3119496401 -3.7620790562 -4.2121437714 4.8014686579
          4.2518241792 3.7024278901 3.1532968746 2.6044575226 2.0559514196 1.5158297964
          1.0167628176 0.5176437622 0.018417815361 -0.48095906462 -0.98053868156 -1.4803950827
          -1.9805220532 -2.4274321696 -2.8751865724 -3.3235974057 -3.772538946 -4.2219329633
        </DataArray>
        <DataArray type="Float64" Name="Phase1::AverageDensity" format="ascii" RangeMin="0.90017804196" RangeMax="1.0998219246">
          1.0996792139 1.0998219246 0.90017804196 0.9003207502 1.0997339705 1.0997344327
          1.099737841 1.0997527017 0.90024722177 0.90026209119 0.90026546775 0.90026596235
          1.0992520225 1.0989064922 1.0985867268 1.0982807511 1.0979838201 1.0338627442
          1.0005394798 1.000271385 1.0000024882 0.99973138254 0.99945834986 0.99917951582
          0.96436119317 0.90187965918 0.90160737932 0.90133415705 0.90105925014 0.90078106399
          0.90049543087 1.0995043377 1.099218916 1.0989406922 1.0986658111 1.0983926453
          1.0981204074 1.0356387916 1.0008205678 1.0005415557 1.0002685604 0.99999746351
          0.99972848478 0.99946051914 0.96613727931 0.90201616912 0.90171922304 0.90141330032
          0.90109351258 0.90074811222 1.0993513853 1.0990172228 1.0987019056 1.0983979198
          1.0981020117 1.086038262 1.0006969778 1.000406459 1.0001268207 0.99984951493
          0.99957328783 0.99929840154 0.99757887314 0.90211646834 0.90172166346 0.90144470437
          0.90116595783 0.90088260971 0.90058793628 1.099363958 1.0990489139 1.0987475995
          1.0984528427 1.0981619447 1.0966406933 1.0009535978 1.0005267751 1.0002379176
          0.99995096263 0.99966533517 0.99938125194 0.99861999036 0.90256133124 0.90179259453
          0.90150861424 0.90122250654 0.9009305515 0.90062379994 1.0993763363 1.0990694871
          1.0987774484 1.0984913805 1.098207417 1.0974385149 1.0013801612 1.0006187061
          1.0003346059 1.0000490825 0.99976205847 0.99947336394 0.99904625585 0.90335937958
          0.90183792984 0.90154714413 0.90125237385 0.9009511527 0.90063630192 1.0994121959
          1.0991174324 1.0988339601 1.0985552495 1.0982783561 1.097883524 1.0024209774
          1.0007017145 1.000426708 1.0001505479 0.99987319496 0.9995934237 0.9993030776
          0.91396159438 0.90189800221 0.90160209743 0.90129818385 0.90098282946 0.90064862017
        </DataArray>
        <DataArray type="Float64" Name="Phase1::Time" format="ascii" RangeMin="10" RangeMax="10">
          10 10 10 10 10 10
          10 10 10 10 10 10
          10 10 10 10 10 10
          10 10 10 10 10 10
          10 10 10 10 10 10
          10 10 10 10 10 10
          10 10 10 10 10 10
          10 10 10 10 10 10
          10 10 10 10 10 10
          10 10 10 10 10 10
          10 10 10 10 10 10
          10 10 10 10 10 10
          10 10 10 10 10 10
          10 10 10 10 10 10
          10 10 10 10 10 10
          10 10 10 10 10 10
          10 10 10 10 10 10
          10 10 10 10 10 10
          10 10 10 10 10 10
          10 10 10 10 10 10
          10 10 10 10 10 10
        </DataArray>
        <DataArray type="Float64" Name="Phase2::Pressure" format="ascii" RangeMin="-4.6749781306" RangeMax="5.3521573107">
          5.3250218693 5.3521573107 -4.647842687 -4.6749781306 5.3282637614 5.3378360985
          5.3468057608 5.3513513496 -4.6486486483 -4.6531942355 -4.6621638956 -4.6717362361
          4.7748193126 4.2242094269 3.6731903271 3.1217655248 2.5699541482 2.0178090942
          1.5169204106 1.0160647708 0.51478818875 0.012983494499 -0.4894970792 -0.99286678066
          -1.4974359582 -1.9470508436 -2.3970367106 -2.8472066923 -3.2974370546 -3.7476483694
          -4.1977921728 4.8022078249 4.2523516282 3.7025629429 3.1527933051 2.6029632867
          2.0529491535 1.5025640386 1.0071332162 0.51050291722 0.012983490856 -0.48521181458
          -0.9839352331 -1.4830795939 -1.9821909117 -2.4300458553 -2.8782344772 -3.3268096739
          -3.7757905733 -4.2251806874 4.7780670342 4.2274610517 3.6764025921 3.1248134256
          2.5725678283 2.0194779445 1.5196049161 1.0194613179 0.51904093497 0.018417814725
          -0.48235623919 -0.98323718514 -1.4841702089 -1.9440485796 -2.3955424763 -2.8467031237
          -3.297572108 -3.7481758188 -4.19853134 4.7878562225 4.2379209378 3.6880503539
          3.1382809494 2.5886723828 2.0393279538 1.5285921825 1.0273437985 0.52659481913
          0.026324339967 -0.47344826274 -0.97266309885 -1.4712040446 -1.9471488312 -2.3992374763
          -2.8507801507 -3.3018868259 -3.7526289815 -4.20305519 4.7969448063 4.2473710148
          3.6981131705 3.1492198456 2.6007625202 2.0528511651 1.5287959556 1.0273369017
          0.52655173788 0.026324340655 -0.47340518001 -0.97265620026 -1.4714078162 -1.9606720401
          -2.411327611 -2.8617190445 -3.3119496401 -3.7620790562 -4.2121437714 4.8014686579
          4.2518241792 3.7024278901 3.1532968746 2.6044575226 2.0559514196 1.5158297964
          1.0167628176 0.5176437622 0.018417815361 -0.48095906462 -0.98053868156 -1.4803950827
          -1.9805220532 -2.4274321696 -2.8751865724 -3.3235974057 -3.772538946 -4.2219329633
        </DataArray>
        <DataArray type="Float64" Name="Phase2::Saturation" format="ascii" RangeMin="0.00089924049883" RangeMax="0.97389539592">
          0.0016200746525 0.00089924049893 0.00089924049883 0.0016200746523 0.0013438106705 0.0013414312292
          0.0013241206184 0.001248795211 0.0012487952106 0.0013241206177 0.0013414312284 0.0013438106712
          0.0037753314989 0.0055152969378 0.0071230386186 0.0086592592294 0.010148537196 0.64243269755
          0.97340693974 0.97351718344 0.97351472822 0.97349898895 0.97350114256 0.97357375183
          0.6286975476 0.0095152974378 0.0081339252074 0.0067489501572 0.0053561746611 0.0039478409726
          0.0025031756787 0.0025031756761 0.003947840965 0.0053561746519 0.0067489501488 0.0081339252093
          0.0095152974237 0.62869775279 0.97357407528 0.97350144583 0.97349921018 0.9735147795
          0.9735173996 0.97340701897 0.64243245525 0.010148537147 0.0086592592044 0.0071230386033
          0.0055152969269 0.0037753315051 0.0032753808633 0.004959174972 0.0065466066137 0.0080746081188
          0.0095608246055 0.12401015963 0.97382705272 0.97371604123 0.97365559636 0.97361864321
          0.97358902894 0.97355599134 0.95899567871 0.010940071171 0.0087181927038 0.0073121523499
          0.0058982752928 0.0044625420598 0.0029704451293 0.0032147370458 0.0048054474395 0.006327127906
          0.0078160809872 0.009286011081 0.020311382778 0.97258153783 0.97389539592 0.97384320821