<VTKFile type="UnstructuredGrid" version="0.1" byte_order="LittleEndian">
  <UnstructuredGrid>
    <Piece NumberOfPoints="756" NumberOfCells="3000">
      <PointData Scalars="Phase1::Pressure" Vectors="Phase1::DarcyVelocity">
        <DataArray type="Float64" Name="Phase1::Pressure" format="ascii" RangeMin="-4.7019324101" RangeMax="5.3195410068">
          5.2961968514 5.3135830172 5.3134470426 5.3177971721 -4.6796805791 -4.69193511
          -4.6956474081 -4.6884391656 5.2973956816 5.3022277691 5.3084025633 5.3127071732
          5.3144551237 5.3168920145 5.3187610157 5.3192728214 5.2974504969 5.3024955011
          5.3092231931 5.3140507286 5.3159876083 5.3174000323 5.3183030632 5.3184858439
          -4.6803356194 -4.682756349 -4.6879427374 -4.6911589668 -4.6938581562 -4.6947955926
          -4.6983457656 -4.6984521962 -4.699012688 -4.7000125437 -4.6956933407 -4.6904858393
          -4.6884816558 -4.6859738972 -4.6819601205 -4.6801666965 4.7460437614 4.1956850057
          3.645202641 3.0947566655 2.5446224553 1.9977668524 1.4929599607 0.98920514692
          0.48590113286 -0.017328505278 -0.52070976709 -1.0243298523 -1.5280787458 -1.9784853638
          -2.4287580068 -2.8790329032 -3.3292946944 -3.7795091753 -4.2296448554 4.7633879609
          4.2128027769 3.661599207 3.1093317309 2.555168934 1.9975783532 1.4960193769
          0.99483579508 0.49369447863 -0.0072033596968 -0.50782863705 -1.0080684877 -1.5076415886
          -1.9845961729 -2.437304066 -2.8892141589 -3.3404879584 -3.7912883721 -4.2417428697
          4.7676621386 4.2172903441 3.6665951394 3.1154129005 2.5634563487 2.0102317435
          1.4996766176 0.99612069792 0.49343344207 -0.0086206423261 -0.51032974172 -1.0120112397
          -1.514055849 -1.9826772143 -2.4374493356 -2.8908596179 -3.3431880895 -3.7946651494
          -4.2454543975 4.7632248738 4.2125669428 3.6612152983 3.1086610549 2.5539399907
          1.9952473228 1.4944382099 0.99323077469 0.49149939616 -0.010843512343 -0.51423402179
          -1.0195460823 -1.5283584683 -1.9818567583 -2.4338331293 -2.8855726761 -3.3368944943
          -3.7877958292 -4.2383084585 5.2995545397 5.3058807275 5.3126820518 5.316006362
          5.3058529768 5.3123584333 5.3172403609 5.3183010105 5.3124813109 5.317051196
          5.3195410068 5.3195193498 5.3159472617 5.3182129273 5.3193733615 5.3194343374
          4.7471097119 4.1963134197 3.6449816912 3.0930792912 2.5405669734 1.9874189233
          1.4874538979 0.98681274321 0.4855086553 -0.016521011454 -0.5194437869 -1.0235720544
          -1.529422907 -1.9787387244 -2.4287823041 -2.8791565385 -3.3296114783 -3.7800047931
          -4.2302590616 4.7519456895 4.2010958182 3.6495895135 3.0972682449 2.5438837888
          1.9890726342 1.4903286497 0.99065108336 0.49032030793 -0.010553087943 -0.51201699558
          -1.0143046915 -1.5179029995 -1.9750776287 -2.4276098705 -2.8795837008 -3.3310378815
          -3.7820246045 -4.2325885551 4.7582258592 4.2076189681 3.6564600873 3.1045118359
          2.5513584225 1.996296471 1.4956282187 0.99513198009 0.49468321184 -0.0055731431418
          -0.50540602389 -1.0045962907 -1.5027335479 -1.978289115 -2.4322033758 -2.8846823338
          -3.3362405548 -3.7871912883 -4.237722845 4.7626978189 4.2125060162 3.6621084237
          3.1114592191 2.5605054199 2.0092281183 1.4973128676 0.99463770926 0.49262821473
          -0.0091915535496 -0.51127400116 -1.0141289422 -1.5184641512 -1.9825383359 -2.4364112163
          -2.8886584572 -3.3399630523 -3.7907005187 -4.2410695035 4.766047021 4.2161792317
          3.666404585 3.1167607503 2.5673222903 2.0182420822 1.4965898809 0.99454762036
          0.49336195933 -0.007254794904 -0.50745088882 -1.007215438 -1.5064337701 -1.9908096468
          -2.4423620445 -2.8931280221 -3.3435113607 -3.7937057994 -4.243806059 4.767355129
          4.2172225206 3.666941966 3.116401954 2.5654210143 2.0137177933 1.4961364456
          0.99339528382 0.49196881626 -0.0087888675531 -0.50926033748 -1.0096946301 -1.5103759745
          -1.9845715774 -2.4387482366 -2.8914537102 -3.3431487476 -3.7941502605 -4.2446627655
          4.7682634949 4.218125385 3.6678430468 3.1173289515 2.5664342362 2.0149133361
          1.4992953911 0.99578653445 0.49345054735 -0.0081025312536 -0.50901504119 -1.0094700188
          -1.5095378911 -1.9926218715 -2.4452161802 -2.8967056241 -3.3475425429 -3.7979981009
          -4.2482351565 4.7684869271 4.2184410651 3.668365024 3.118293911 2.5683111395
          2.0186088441 1.4947772416 0.9919612127 0.49046974258 -0.010182297311 -0.51034891989
          -1.0101046096 -1.5093734398 -1.9906433386 -2.4441043565 -2.8961353827 -3.3473186174
          -3.7979870775 -4.2483309416 4.7642825551 4.2137843503 3.6628344415 3.1112065637
          2.5585422509 2.0043143412 1.496419688 0.99392261918 0.49184488367 -0.010156533606
          -0.51241261074 -1.0152860036 -1.5192071457 -1.9815916638 -2.435003738 -2.8872898867
          -3.338891451 -3.7898814817 -4.2403657445 4.7668348318 4.216631829 3.6662302534
          3.1155308939 2.5643781367 2.0125440312 1.4973788837 0.99383784645 0.49165455194
          -0.0097452119928 -0.51069915163 -1.011385701 -1.5118366913 -1.9860511397 -2.4405838556
          -2.893121932 -3.3445165249 -3.7952503199 -4.2455960286 4.7687873535 4.2188174288
          3.6688518782 3.1188879429 2.5689276433 2.0189912749 1.4969805413 0.99287516091
          0.49082850324 -0.010084847018 -0.51011928278 -1.0094519722 -1.5080303851 -1.9974458487
          -2.4489470552 -2.8996307794 -3.3498837275 -3.7999441504 -4.2499579254 4.7693611479
          4.2195823087 3.6700046106 3.120758631 2.5720824866 2.0244061491 1.4939449864
          0.99105633698 0.48967713968 -0.01070604568 -0.51057182199 -1.009990789 -1.5088852978
          -1.9918560306 -2.4451368341 -2.8970079216 -3.348060405 -3.7986319677 -4.2489151142
          4.7471613607 4.1963580037 3.6450129159 3.0930867354 2.5405322628 1.9873138966
          1.487420583 0.98681502779 0.48552691321 -0.016498289869 -0.51942080163 -1.0235441914
          -1.5293702591 -1.9786611991 -2.4286763012 -2.8790250009 -3.329460331 -3.7798408196
          -4.2300891349 4.7522142627 4.2013733204 3.6498837371 3.0975880292 2.5442423756
          1.9894961673 1.4907039543 0.99097715566 0.49058176651 -0.010388965539 -0.51200228222
          -1.0145113799 -1.5184194189 -1.9748362525 -2.4271399619 -2.8789642031 -3.3303256514
          -3.7812593621 -4.2317977884 4.7590864794 4.2085994781 3.6576428173 3.1059779165
          2.5531731871 1.9984721421 1.4970136623 0.99634015302 0.49578467205 -0.0045554401372
          -0.50457284423 -1.0042058884 -1.5033366954 -1.9771455533 -2.4306138197 -2.8828708623
          -3.3343392846 -3.7852713997 -4.2358123235 4.7642151674 4.2145300708 3.6651007778
          3.1161217963 2.5679516948 2.0212587379 1.496790588 0.99500229655 0.49395217972
          -0.006607130856 -0.50681996824 -1.0066395477 -1.505859418 -1.9812317135 -2.434021038
          -2.8858889685 -3.3370292822 -3.7877708849 -4.2382387804 -4.6809696481 -4.6838136084
          -4.689057015 -4.6917542864 -4.6845152487 -4.6887916017 -4.6947490869 -4.6978182538
          -4.6910343609 -4.6951394196 -4.7001133903 -4.7019324101 -4.6945223402 -4.6963787281
          -4.7007238896 -4.701358923 4.7492937549 4.1984929462 3.6470903665 3.0949696362
          2.5419387785 1.9876944993 1.4887620959 0.9890238261 0.48873511031 -0.011933888999
          -0.51286941037 -1.0139758157 -1.5151318482 -1.974567221 -2.4267100841 -2.8783349145
          -3.3295262211 -3.7803405312 -4.2308145658 4.7557697752 4.2054302984 3.6548436179
          3.1039762872 2.5527766638 2.0011726851 1.4967139017 0.9957491692 0.49513515334
          -0.0050871289279 -0.50482480568 -1.003901967 -1.5020003211 -1.9751946087 -2.4284103738
          -2.8806320333 -3.3321344901 -3.7831008191 -4.2336405921 4.7627567229 4.2129922463
          3.6634356175 3.1141775748 2.5653761325 2.0173061218 1.5011024335 0.99876934805
          0.49754039889 -0.0028875918915 -0.50259222369 -1.0015915067 -1.4998401883 -1.9910410793
          -2.4398606941 -2.8893352509 -3.3391245922 -3.7890618836 -4.2390546585 4.766149878
          4.2166007096 3.6674440229 3.1188435213 2.5710738469 2.0245726118 1.4884473692
          0.99005519038 0.49110484745 -0.0080427753562 -0.50717259608 -1.0060137234 -1.5042254077
          -1.9935833364 -2.4427893831 -2.8922762648 -3.341981338 -3.7918200555 -4.2417504733
          4.7557531986 4.2054496056 3.6549309657 3.1041772266 2.5531575682 2.0018294544
          1.496670505 0.99557956463 0.49491163772 -0.0053097867161 -0.50500113069 -1.0039863055
          -1.5019354358 -1.9758846199 -2.4291288707 -2.8813516971 -3.3328489798 -3.7838081739
          -4.2343432523 4.7624654539 4.2128038743 3.6634297919 3.11444529 2.5660149887
          2.0184017981 1.5009507677 0.99866492016 0.49747366346 -0.0028339638643 -0.5023459734
          -1.0010546003 -1.4988609811 -1.9834430362 -2.4356027262 -2.8869952459 -3.3378670139
          -3.7884042713 -4.2386965769 4.7674307255 4.2179828804 3.6689840974 3.1205285129
          2.5727598806 2.0258826695 1.497197995 0.99534741604 0.49451060046 -0.0056552633158
          -0.50533424787 -1.004620574 -1.5035524409 -1.9981857589 -2.4472504564 -2.8963608549
          -3.3456550813 -3.7951504017 -4.2448502926 4.7683935054 4.2187505219 3.6693675558
          3.1202938277 2.5716003987 2.0233850776 1.4785308212 0.9827511971 0.48548805663
          -0.012739827291 -0.51161738573 -1.0110102555 -1.5109196114 -2.0115043806 -2.4559003869
          -2.9023661412 -3.3501451514 -3.7987941626 -4.2480618219 4.7625651447 4.2128357203
          3.6633561737 3.1142496782 2.5657304363 2.0181644886 1.4997022609 0.99726197273
          0.49603160994 -0.0043419859822 -0.50401410263 -1.0030535696 -1.5014019394 -1.9937696958
          -2.4427044519 -2.8919592933 -3.3414754289 -3.7911879718 -4.2410491909 4.7672269362
          4.2177954306 3.6687944121 3.1203274543 2.5725492437 2.0256801537 1.4900803722
          0.99056187296 0.49125647708 -0.0079559863609 -0.50701951489 -1.0060581963 -1.5051309668
          -2.0027520782 -2.4496530682 -2.8976896981 -3.3464446147 -3.7956808551 -4.2452677113
          4.7696969719 4.2201467327 3.6709327042 3.1220853455 2.5736434532 2.0256446716
          1.4826787218 0.98512889713 0.48686036542 -0.011892591036 -0.51100507406 -1.0104429755
          -1.5102121401 -2.0102971684 -2.4569038418 -2.9042935035 -3.3523942113 -3.8011044871
          -4.2503579867 4.7695632108 4.2197252169 3.6699822456 3.1202929699 2.5705818597
          2.0207137974 1.4704602434 0.97648240668 0.48054564532 -0.016769763591 -0.51508946857
          -1.014220742 -1.5141219162 -2.0148877187 -2.460249646 -2.906925728 -3.3546180657
          -3.8031049804 -4.2522386708 4.7660832195 4.2165161623 3.6673273809 3.1186731684
          2.5708181039 2.0241890855 1.4867161481 0.98850616167 0.48962542462 -0.0096956969405
          -0.50933431607 -1.0091646252 -1.5092333149 -2.009577305 -2.4528237393 -2.8989230038
          -3.34667717 -3.7954117178 -4.244756444 4.76830012 4.2185588551 3.6690022876
          3.1196162615 2.5703636951 2.0211543025 1.4724204708 0.97975619698 0.48428342379
          -0.012790021414 -0.51083358547 -1.0093108825 -1.5077930055 -1.9924366034 -2.4447258345
          -2.8957520013 -3.3461673954 -3.796308615 -4.2463504583 4.7694230534 4.2196241004
          3.6699743472 3.120503156 2.5712661969 2.0223737325 1.4932346902 0.99052391251
          0.48934590404 -0.011113099768 -0.51131319085 -1.0115218739 -1.5119483948 -2.0128314963
          -2.4580442175 -2.9049295126 -3.3529162811 -3.8016606756 -4.2509647171 4.7694570313
          4.2195424281 3.6696742646 3.1198236581 2.5699323127 2.0198809194 1.4694273216
          0.97668159594 0.48109983939 -0.016172782646 -0.51448825947 -1.0134802727 -1.5129724046
          -2.0128491138 -2.4581550193 -2.9051976487 -3.353341209 -3.802209855 -4.2515880815
        </DataArray>
        <DataArray type="Float64" Name="Phase1::Saturation" format="ascii" RangeMin="0.00033378665619" RangeMax="0.99899119613">
          0.00087486693038 0.00084077468818 0.00083458739964 0.00074708927494 0.99898232882 0.99825825298
          0.99899119613 0.99898408714 0.00080612030127 0.00080253160174 0.00075024512537 0.0006913687608
          0.00074515481928 0.00073359960313 0.00072407717296 0.00064252542546 0.00080597804435 0.00080165934107
          0.00073569323838 0.00052894744042 0.00063213535137 0.00073405313448 0.00072360091171 0.00064206346397
          0.99868980637 0.99865140505 0.99841960655 0.99898664212 0.99818885882 0.99857468799
          0.99837726858 0.99871760884 0.99871793185 0.99838484239 0.9986536598 0.9986920052
          0.99802242124 0.99864635378 0.99864832287 0.99868973932 0.0016520216251 0.0024522448922
          0.0032645410924 0.0040256539118 0.0045343163449 0.0090775487542 0.010092931202 0.01134233324
          0.012630323156 0.013976518095 0.015458170956 0.016168088692 0.62314920405 0.986982259
          0.98891738538 0.9907763085 0.99283685474 0.99485497497 0.99695140038 0.0015162633305
          0.0022169045986 0.003048257612 0.0037874307166 0.0043025786262 0.0074797923849 0.009014248392
          0.010338946654 0.011717728572 0.012811223294 0.014600465574 0.015564883404 0.024513045847
          0.98233274293 0.98766177309 0.98962301874 0.99176191163 0.9939123116 0.99614515911
          0.0014801059354 0.0022347920853 0.0029487532128 0.0036256006791 0.0041988263503 0.005917549386
          0.0084614434708 0.0098373847553 0.011290890095 0.012713140824 0.014104433656 0.015132716794
          0.020733505542 0.98461375931 0.9879177181 0.9901082904 0.99227952623 0.99449998353
          0.99673129072 0.0016105798017 0.0022608900623 0.003066804553 0.0037854770015 0.0042860056643
          0.0077739832662 0.0090766336965 0.01049677589 0.011764748088 0.013086272502 0.014658028778
          0.015525606871 0.12248359642 0.98638836776 0.98836281084 0.99053499637 0.99263820031
          0.99473722148 0.99686944688 0.00066308318638 0.00065499677534 0.0006041444442 0.00044420664104
          0.00065495013565 0.00065366879109 0.0006090706326 0.00044367048165 0.00060412196987 0.00060883025754
          0.0005814573483 0.00042999830133 0.00044430753048 0.00044357400172 0.0004296643392 0.00033378665619
          0.0014665571325 0.0022315596544 0.0030101265354 0.0038145889651 0.0043496639579 0.0083336900574
          0.0095093290032 0.010871979037 0.012147198022 0.013451947443 0.01493588771 0.015899540313
          0.26673700297 0.98656931247 0.98835967041 0.99043687221 0.99251117036 0.99458258063
          0.99670584304 0.0014483042594 0.0022184968243 0.0029657738504 0.0037465501418 0.0042319960485
          0.0075763871132 0.0089633671312 0.010435195594 0.011734472176 0.013098719469 0.01459643616
          0.015632917555 0.029632408249 0.9858192286 0.98799047296 0.99013726212 0.9922653873
          0.99440961734 0.99660000129 0.0013915980194 0.0021773052284 0.0028610035819 0.0036116710839
          0.0041918036269 0.0066960668391 0.0085473083163 0.010081478154 0.011440774237 0.0127422224
          0.014221695704 0.015391194296 0.01997187477 0.98383719434 0.98776535964 0.98976694593
          0.99191613386 0.99410186047 0.99633252708 0.0014110380339 0.0021096860754 0.0028851874335
          0.0036311608881 0.0041710881348 0.0057013789931 0.0085557251406 0.0098855813767 0.011356272669
          0.012971849365 0.014269170456 0.015481742856 0.027908289723 0.98550629096 0.98811894406
          0.9902717184 0.99239764716 0.99455545783 0.99672093987 0.001276261135 0.0020030942625
          0.0027762927347 0.0034329823659 0.0040906950996 0.0052550711609 0.0082892702153 0.0096676611415
          0.01105888012 0.01244724358 0.013932451041 0.015170128009 0.019017799934 0.98179297025
          0.98788200771 0.98972518476 0.99187249628 0.99402185684 0.99623183308 0.0013347247117
          0.0021108108832 0.0028485700859 0.0035108804952 0.0041473694611 0.0056431132354 0.0084201113429
          0.0098032411663 0.011219151195 0.01261730221 0.014037725185 0.015133686693 0.025990354053
          0.9835661983 0.98802333558 0.9899468155 0.9921142398 0.9942647364 0.99642616987
          0.0013178073724 0.0021551237556 0.0028685830285 0.0035984268727 0.004185809344 0.0056972241865
          0.0082707461773 0.0097944817941 0.011164053759 0.012537092909 0.013754235535 0.015144058155
          0.017927865447 0.9815558477 0.98790236852 0.98974439371 0.99193886322 0.99412113565
          0.99635536737 0.0012552935457 0.00207802412 0.0028320983695 0.0035241100433 0.0041872072152
          0.0053837474134 0.0083473186059 0.0096224951481 0.011147901292 0.01255870086 0.013895554196
          0.015151964341 0.018777166889 0.9825425732 0.98780677579 0.98985438164 0.99200795843
          0.99423573533 0.99646362109 0.0013715967827 0.0021521330927 0.0029516707198 0.0036243934947
          0.004240702112 0.0062210353071 0.0086690096034 0.010055781565 0.011439128156 0.012881769747
          0.014344791962 0.015340246746 0.033943619524 0.98548640925 0.98806616242 0.98979914963
          0.99185690783 0.9942856733 0.99661067798 0.0013667222706 0.0020941348891 0.0028994703434
          0.0035596152893 0.0041529172923 0.0054907876958 0.0082632841217 0.0096961344256 0.011115627267
          0.012533664857 0.013917073796 0.015162871318 0.019035368167 0.9840224059 0.98779021196
          0.98980432902 0.99198445695 0.99423364293 0.99643953721 0.0014310294207 0.0021473768615
          0.0028744078438 0.0035134576847 0.0041971941992 0.0053931911417 0.0082792393387 0.0095909872104
          0.011031993163 0.0124235029 0.013665201371 0.015152497552 0.016784540262 0.97964744372
          0.98771612893 0.9895904473 0.9917673562 0.99399183315 0.99623786871 0.0013459611865
          0.00209105078 0.0027781365852 0.0034833685067 0.0041443061308 0.0050574964709 0.008286352288
          0.0095914667102 0.01100912067 0.012505101708 0.013763164704 0.015155916082 0.017446888648
          0.98214549084 0.98778584634 0.98983889657 0.99199792999 0.9942320192 0.99647333458
          0.001458114791 0.0022558912124 0.0030316207647 0.0037982919265 0.0043128013371 0.0083761133405
          0.009536984179 0.010875902397 0.012145828883 0.01342150046 0.014923161965 0.015891525286
          0.27498766269 0.98662710211 0.98844404574 0.99045511504 0.99251282902 0.99458134246
          0.99667984102 0.0014330045366 0.0022485774183 0.0030187123175 0.0037688650014 0.0042969381799
          0.0076992876573 0.0090622928333 0.010467730002 0.0118505117 0.013198861989 0.014589043373
          0.015708878867 0.034942357493 0.98601641608 0.98811420741 0.99026065683 0.99235733528
          0.99448512965 0.99664078893 0.0013534048186 0.002186773264 0.002932253594 0.0036476641345
          0.0042696588488 0.0067185114624 0.0086470572345 0.010046511411 0.011505774844 0.012847174997
          0.01418821668 0.015496346553 0.028165017798 0.98380475783 0.98789323906 0.98984552872
          0.99201254949 0.99414736993 0.99644543442 0.0012276798063 0.0019671423821 0.0027150934208
          0.003447633762 0.0041379469501 0.0050722276077 0.0082765999242 0.0096443438466 0.011112387631
          0.012554953571 0.013985677525 0.015243632635 0.020386760131 0.98383147615 0.98792411232
          0.98994257313 0.99225820459 0.99410075933 0.99615197127 0.9982403428 0.99815053234
          0.99814900273 0.99779681446 0.99818143911 0.99779761662 0.99826481345 0.99766518869
          0.99793270917 0.997763111 0.99797090146 0.99766753986 0.99765524227 0.99836445384
          0.99767477442 0.99753395487 0.0013391891074 0.0020883752432 0.00282649724 0.0035478951957
          0.0041782165972 0.0068771808865 0.0088113820104 0.010256493014 0.011614493839 0.013016410786
          0.014392515381 0.015612934161 0.032886225028 0.98577453744 0.98788567372 0.99003769693
          0.99212219637 0.99420542625 0.99634977143 0.0013138304588 0.0020444242342 0.0027397741875
          0.0034589010888 0.0040808046139 0.0059500706305 0.0082874228962 0.00976121619 0.011208380424
          0.01261160962 0.014007963078 0.015300076275 0.019548108763 0.98433956904 0.98780251184
          0.98985553776 0.9919567942 0.99408758599 0.99625976824 0.0012571863374 0.0019809107617
          0.0026900659517 0.0033814657315 0.0040465984446 0.0052344489423 0.0080980333048 0.0095188331122
          0.010905873413 0.012273042875 0.013654595238 0.015057527052 0.016924304011 0.97281513278
          0.98777834281 0.9896024868 0.9918542159 0.99399032947 0.99621157183 0.0011464297887
          0.0018783266229 0.0025928058869 0.0032783669718 0.0039976190343 0.0047746511482 0.0081337639536
          0.0094245952493 0.010836668103 0.012278282247 0.013686416945 0.015056637194 0.01713390564
          0.95243162967 0.98764108759 0.9892212619 0.99146261097 0.99360746553 0.99588238165
          0.0013154076321 0.0020447740888 0.0027544126065 0.0034495742547 0.0040813468387 0.0058438747659
          0.0082687280162 0.0097461575792 0.011171591411 0.012594960494 0.014029437906 0.015312196484
          0.019408703342 0.98414797701 0.98769244847 0.98975339793 0.99187790975 0.99402966824
          0.99622982334 0.0012871589268 0.0019965623829 0.0026870226039 0.0033776992605 0.0040108688337
          0.0051502045811 0.007903816264 0.0093489273591 0.010804149889 0.012253046149 0.013700641561
          0.015085087364 0.017564266069 0.9817565684 0.98760197564 0.98931065423 0.99146084422
          0.9936229816 0.99587406644 0.0012248347167 0.0018963026527 0.0025829428944 0.003262707536
          0.0039445947728 0.0048002244449 0.0078201656711 0.0092061400262 0.010631320005 0.012049031631
          0.0134494176 0.014914430493 0.016390068666 0.95739253637 0.98769167052 0.98958891819
          0.99184002029 0.99398990559 0.99622045245 0.0011479235529 0.001887369432 0.0025913311219
          0.0032823151891 0.0039907761211 0.0046056184909 0.0078613376241 0.0092324385432 0.010581197455
          0.011919957205 0.013279820885 0.014695876794 0.015881101316 0.76424647289 0.98746010131
          0.98900190924 0.99133862984 0.99346639815 0.99574277734 0.0012593161605 0.0019767080773
          0.0026854233585 0.0033652568136 0.0040482002824 0.0051270580342 0.0080968569183 0.0094858559111
          0.010884699003 0.012323218049 0.013726835716 0.01506028603 0.016768521863 0.97465508797
          0.98763050605 0.98937334062 0.99155988844 0.99373241025 0.99598318151 0.0012361811679
          0.001910245221 0.0025983034262 0.0032820488794 0.0039726968861 0.0047193262112 0.0078597054064
          0.0091883525398 0.010584663427 0.012021215662 0.013466847456 0.014854719202 0.016154435337
          0.93197190677 0.98752981832 0.98913026156 0.99139558334 0.99355002706 0.99582909625
          0.0011969177413 0.0018624095514 0.002542429843 0.0032173638649 0.0039167690273 0.0045570616748
          0.007781234309 0.0091267616271 0.010488039995 0.011895725669 0.01331645153 0.01477199005
          0.015891535322 0.90597978101 0.98751699119 0.98927484303 0.9915163217 0.99367351318
          0.9959495719 0.0011026934382 0.0017959166712 0.0024951902928 0.0031696955825 0.0038705075235
          0.0044535192743 0.0076485663209 0.0091145537534 0.010486042131 0.011826331036 0.013170089905
          0.014569648336 0.015738935844 0.60709483709 0.9873657839 0.98893717714 0.99129069737
          0.9934239829 0.99572565872 0.0011479375266 0.0018738021557 0.0025541250561 0.0032579085484
          0.0039708798102 0.0046801557298 0.0080118380558 0.0093465963045 0.010698571688 0.012081333176
          0.013457751926 0.014799430007 0.016012191997 0.80857996416 0.98759883769 0.98908373881
          0.99137638699 0.99348860995 0.99573862122 0.0011129711099 0.0017809750703 0.0024766361854
          0.0031663017169 0.003864515312 0.0044763979042 0.0078162202181 0.0091679686724 0.010505234773
          0.011887883641 0.013407133295 0.014916952713 0.017395144714 0.98123562508 0.98781398015
          0.98968457542 0.99187957904 0.99405639018 0.99628190947 0.001160971176 0.0019450100148
          0.002642256972 0.0033352396216 0.0040242317979 0.0048632831726 0.0078390998316 0.0093153894677
          0.010704045418 0.012053434544 0.01325575166 0.014594188112 0.015768838515 0.67833541477
          0.98743197379 0.98898108341 0.99131238217 0.99345420953 0.99574334277 0.0010460882605
          0.0017468552728 0.0024457208702 0.003140019604 0.0038413138227 0.0044328303408 0.0075395678631
          0.0090913682131 0.010499554917 0.011795252655 0.013173380199 0.014539453218 0.015711665774
          0.51563622467 0.98730260851 0.98878684701 0.99120586222 0.99332069106 0.99563423416
        </DataArray>
        <DataArray type="Float64" Name="Phase1::RelativePermeability" format="ascii" RangeMin="1.1141353185e-07" RangeMax="0.99798340994">
          7.6539214588e-07 7.0690207629e-07 6.9653612763e-07 5.5814238472e-07 0.9979656933 0.99651953965
          0.99798340994 0.99796920636 6.4982994012e-07 6.4405697179e-07 5.6286774814e-07 4.7799076341e-07
          5.5525570469e-07 5.3816837771e-07 5.242877524e-07 4.1283892236e-07 6.4960060798e-07 6.4265769912e-07
          5.4124454099e-07 2.7978539473e-07 3.9959510245e-07 5.3883400424e-07 5.2359827943e-07 4.1224549176e-07
          0.99738132934 0.9973046288 0.99684171074 0.99797431113 0.99638099787 0.99715140749
          0.99675717042 0.9974368622 0.99743750739 0.99677229352 0.99730913224 0.99738572125
          0.9960487533 0.99729453992 0.99729847278 0.99738119543 2.7291754498e-06 6.0135050114e-06
          1.0657228544e-05 1.6205889417e-05 2.0560024716e-05 8.2401891386e-05 0.00010186726024 0.00012864852333
          0.00015952506304 0.00019534305807 0.00023895504929 0.00026140709194 0.38831493051 0.97413397958
          0.97795759511 0.98163769349 0.98572502014 0.98973642123 0.99391209471 2.2990544873e-06
          4.9146659992e-06 9.2918744689e-06 1.4344631433e-05 1.8512182834e-05 5.5947294121e-05 8.1256674073e-05
          0.00010689381792 0.00013730516289 0.00016412744228 0.00021317359498 0.00024226559539 0.00060088941669
          0.96497761784 0.97547577802 0.97935371922 0.98359168936 0.98786168314 0.99230517802
          2.1907135801e-06 4.9942956645e-06 8.6951455098e-06 1.3144980285e-05 1.763014272e-05 3.5017390735e-05
          7.159602561e-05 9.6774138824e-05 0.00012748419913 0.0001616239496 0.00019893504875 0.00022899911756
          0.00042987825207 0.96946425503 0.97598141773 0.98031442673 0.98461865817 0.98903021724
          0.9934732659 2.5939672975e-06 5.1116238736e-06 9.4052901663e-06 1.4329836129e-05 1.8369844555e-05
          6.0434815824e-05 8.2385279261e-05 0.00011018230409 0.00013840929758 0.00017125052801 0.00021485780765
          0.00024104446873 0.015002231393 0.97296201205 0.97686104586 0.98115957903 0.98533059671
          0.9895021398 0.99374869413 4.3967931206e-07 4.290207757e-07 3.6499050945e-07 1.9731953995e-07
          4.2895968019e-07 4.2728288844e-07 3.7096703549e-07 1.9684349629e-07 3.6496335449e-07 3.7067428249e-07
          3.3809264789e-07 1.8489853914e-07 1.9740918164e-07 1.96757895e-07 1.8461144438e-07 1.1141353185e-07
          2.150789823e-06 4.979858491e-06 9.0608617592e-06 1.4551088972e-05 1.8919576546e-05 6.9450389972e-05
          9.042733809e-05 0.00011819992818 0.00014755441979 0.00018095489 0.00022308074168 0.00025279538217
          0.071148628756 0.97331900831 0.9768548381 0.98096519784 0.98507842329 0.98919450969
          0.99342253755 2.0975852277e-06 4.9217281593e-06 8.7958145317e-06 1.4036637965e-05 1.7909790554e-05
          5.7401641689e-05 8.0341950329e-05 0.00010889330708 0.00013769783726 0.00017157645172 0.00021305594858
          0.00024438811128 0.00087807961865 0.97183955148 0.97612517465 0.98037179784 0.98459059883
          0.98885048707 0.99321156257 1.9365450475e-06 4.7406580578e-06 8.1853414958e-06 1.3044168018e-05
          1.7571217647e-05 4.4837311114e-05 7.3056479455e-05 0.00010163620176 0.00013089131513 0.00016236423168
          0.0002022566287 0.00023688886186 0.00039887578183 0.96793562496 0.97568040571 0.97963860726
          0.9838976166 0.98823850898 0.99267850451 1.9910283331e-06 4.4507753368e-06 8.3243065264e-06
          1.3185329396e-05 1.7397976228e-05 3.2505722422e-05 7.3200432681e-05 9.7724719155e-05 0.00012896492893
          0.00016826887596 0.00020360922549 0.00023968436187 0.00077887263527 0.97122264953 0.97637904761
          0.98063807627 0.98485309009 0.98914055869 0.99345263198 1.6288424847e-06 4.0123866244e-06
          7.707801349e-06 1.1785367925e-05 1.6733786398e-05 2.7615772906e-05 6.8712000703e-05 9.3463671947e-05
          0.00012229882952 0.00015493387273 0.00019411319202 0.0002301327838 0.00036167671432 0.96391743644
          0.97591086116 0.97955594134 0.98381104887 0.98807945188 0.99247786524 1.7814900562e-06
          4.4555225847e-06 8.1143515343e-06 1.2326281852e-05 1.7200673447e-05 3.1844726988e-05 7.0898275026e-05
          9.6103537365e-05 0.00012586935355 0.00015919631507 0.00019705772837 0.00022902847293 0.0006754985038
          0.96740246643 0.97619011164 0.97999469751 0.98429066482 0.98856236605 0.99286511201
          1.7366162707e-06 4.6445584017e-06 8.2287685917e-06 1.2948675958e-05 1.7520999864e-05 3.2458363431e-05
          6.840524233e-05 9.5931873615e-05 0.00012463609633 0.0001571786986 0.00018917899516 0.00022934249739
          0.0003214083595 0.96345188216 0.97595108972 0.97959396488 0.98394270836 0.98827683236
          0.99272401808 1.5757618859e-06 4.3181842434e-06 8.0207811746e-06 1.2419351598e-05 1.7532704263e-05
          2.8984736211e-05 6.9677727909e-05 9.2592412876e-05 0.00012427570322 0.00015772096728 0.00019308642641
          0.0002295820234 0.00035258199639 0.96538990814 0.97576222629 0.97981169685 0.9840797896
          0.9885046974 0.99293974815 1.8812777342e-06 4.6316768486e-06 8.7123600381e-06 1.3136228204e-05