<VTKFile type="UnstructuredGrid" version="0.1" byte_order="LittleEndian">
  <UnstructuredGrid>
    <Piece NumberOfPoints="21" NumberOfCells="20">
      <PointData Scalars="Phase1::Pressure" Vectors="Phase1::DarcyVelocity">
        <DataArray type="Float64" Name="Phase1::Pressure" format="ascii" RangeMin="-4.8163751681" RangeMax="5.1836248392">
          5.1836248392 4.6336249743 4.0836257683 3.5336275568 2.9836306629 2.4336354054
          1.8836429145 1.3804573402 0.88044779589 0.38044207526 -0.11955983188 -0.61955792475
          -1.1195522041 -1.6195426598 -2.1163570928 -2.566364602 -3.0163693445 -3.4663724505
          -3.916374239 -4.3663750329 -4.8163751681
        </DataArray>
        <DataArray type="Float64" Name="Phase1::Saturation" format="ascii" RangeMin="0.00063399492613" RangeMax="0.99807664654">
          0.00063399492613 0.0015326901408 0.0022949746704 0.0030175286325 0.0037202644862 0.0044110522147
          0.0073622691891 0.008972087083 0.010336932744 0.011690966755 0.013036985612 0.014376889397
          0.015712031671 0.017659425703 0.93196422775 0.98661501504 0.98871125834 0.99084393128
          0.99303658346 0.99534956511 0.99807664654
        </DataArray>
        <DataArray type="Float64" Name="Phase1::RelativePermeability" format="ascii" RangeMin="4.0194956636e-07" RangeMax="0.99615699236">
          4.0194956636e-07 2.3491390677e-06 5.2669087379e-06 9.1054790478e-06 1.3840367847e-05 1.9457381641e-05
          5.4203007613e-05 8.0498346625e-05 0.00010685217856 0.00013667870367 0.00016996299386 0.00020669494874
          0.00024686793922 0.00031185531616 0.86855732181 0.9734091879 0.97754995236 0.98177169615
          0.98612165609 0.99072075676 0.99615699236
        </DataArray>
        <DataArray type="Float64" Name="Phase1::Density" format="ascii" RangeMin="0.9" RangeMax="0.9">
          0.9 0.9 0.9 0.9 0.9 0.9
          0.9 0.9 0.9 0.9 0.9 0.9
          0.9 0.9 0.9 0.9 0.9 0.9
          0.9 0.9 0.9
        </DataArray>
        <DataArray type="Float64" Name="Phase1::DarcyVelocityOverPorosityCFL" format="ascii" RangeMin="0" RangeMax="0.0047484012039">
          2.6126233834e-05 7.635794614e-05 0.00017120817064 0.00029599650513 0.00044992752331 0.00063253611596
          0.00093721430997 0.0013088625641 0.0017373171248 0.0022222166824 0.0027633162272 0.0033604495603
          0.0040135054031 0.0047484012039 0.0019434412771 0.0013823130424 0.00090935644563 0.0005259586354
          0.00023456014633 4.0125992341e-05 0
        </DataArray>
        <DataArray type="Float64" Name="Phase1::DivergenceTotalDarcyVelocity" format="ascii" RangeMin="-4.1010427846e-08" RangeMax="4.2043701334e-08">
          4.2043701334e-08 -4.1010427846e-08 2.0137557049e-08 -1.167754613e-08 -1.8788991402e-09 2.0181378379e-08
          -9.3524210099e-09 1.405548965e-09 -3.3927853826e-09 -1.6634388046e-09 1.2923715837e-08 -4.2650127343e-09
          -1.4168358281e-08 1.2230670185e-08 1.1085655865e-09 -7.4808667969e-09 7.1432032901e-09 -1.8297422995e-09
          -1.3296993682e-09 6.8307225722e-09 -9.8680294716e-09
        </DataArray>
        <DataArray type="Float64" Name="Phase1::Mobility" format="ascii" RangeMin="4.3575994584e-07" RangeMax="0.9931652691">
          4.3575994584e-07 1.4914639852e-06 4.1292155264e-06 7.7927094746e-06 1.2441773364e-05 1.805555521e-05
          3.9941900894e-05 7.3043736113e-05 0.00010159947694 0.00013207264214 0.0001663080585 0.00020429287663
          0.00024601872303 0.00030308357646 0.43183764802 0.91781960633 0.97445860435 0.97881350469
          0.98327753532 0.98793836847 0.9931652691
        </DataArray>
        <DataArray type="Float64" Name="Phase1::TotalMobility" format="ascii" RangeMin="0.43391678708" RangeMax="0.99316751015">
          0.99316745297 0.98794602317 0.98329878229 0.9788539242 0.97452231322 0.91791228571
          0.43391697373 0.47501818404 0.94623187682 0.94679271622 0.94677013575 0.94679293715
          0.94623181309 0.47501804157 0.43391678708 0.91791250318 0.97452261343 0.97885359329
          0.98329877617 0.98794604002 0.99316751015
        </DataArray>
        <DataArray type="Float64" Name="Phase1::FractionalFlow" format="ascii" RangeMin="4.38757779e-07" RangeMax="0.99999774354">
          4.38757779e-07 1.5096614088e-06 4.1993497814e-06 7.9610545373e-06 1.2767048219e-05 1.9670240273e-05
          9.2049639244e-05 0.00015377039989 0.00010737270581 0.00013949478052 0.00017565832742 0.00021577355366
          0.00025999836364 0.00063804645284 0.99520843831 0.99989879553 0.99993431751 0.99995904535
          0.99997839837 0.99999223485 0.99999774354
        </DataArray>
        <DataArray type="Float64" Name="Phase1::SumSaturation" format="ascii" RangeMin="0.99999972059" RangeMax="1.000000216">
          0.99999983221 1.0000001716 0.99999978647 1.000000216 1.0000000041 0.99999972059
          1.0000001315 0.99999996265 1.0000001117 1.0000000246 0.99999972876 1.0000001694
          1.0000002025 0.99999979458 0.99999996786 1.0000001671 0.99999990042 0.99999999115
          1.000000029 0.99999993799 1.0000001319
        </DataArray>
        <DataArray type="Float64" Name="Phase1::AveragePressure" format="ascii" RangeMin="-4.8163751681" RangeMax="5.1836248392">
          5.1836248392 4.6336249743 4.0836257683 3.5336275568 2.9836306629 2.4336354054
          1.8836429145 1.3804573402 0.88044779589 0.38044207526 -0.11955983188 -0.61955792475
          -1.1195522041 -1.6195426598 -2.1163570928 -2.566364602 -3.0163693445 -3.4663724505
          -3.916374239 -4.3663750329 -4.8163751681
        </DataArray>
        <DataArray type="Float64" Name="Phase1::AverageDensity" format="ascii" RangeMin="0.90025586674" RangeMax="1.0997440676">
          1.0997440676 1.0993818829 1.0990739237 1.0987828796 1.0984991149 1.0982200734
          1.0924603492 1.0008686972 1.0005376218 1.000268617 0.9999997289 0.99973157726
          0.99946269269 0.99913106071 0.90753977217 0.90177977085 0.90150080107 0.90121735091
          0.90092586816 0.90061825051 0.90025586674
        </DataArray>
        <DataArray type="Float64" Name="Phase1::RegressionSaturation" format="ascii" RangeMin="0.00063399492613" RangeMax="0.99807664654">
          0.00063399492613 0.0015326901408 0.0022949746704 0.0030175286325 0.0037202644862 0.0044110522147
          0.0073622691891 0.008972087083 0.010336932744 0.011690966755 0.013036985612 0.014376889397
          0.015712031671 0.017659425703 0.93196422775 0.98661501504 0.98871125834 0.99084393128
          0.99303658346 0.99534956511 0.99807664654
        </DataArray>
        <DataArray type="Float64" Name="Phase1::RegressionSaturationError" format="ascii" RangeMin="4.2273042705e-15" RangeMax="4.6842529855e-12">
          4.2273042705e-15 7.7698264489e-15 2.1337966116e-14 2.7190055762e-14 1.8246255201e-14 6.8547598153e-15
          1.5925628871e-14 2.8385280237e-14 9.3555371783e-14 1.18295998e-13 3.5038465185e-13 2.3187007869e-13
          2.2865737082e-13 8.3967555131e-14 7.4817929629e-13 9.469092177e-13 4.3418602047e-12 3.1989966232e-12
          1.4129808434e-12 9.3247631838e-13 4.6842529855e-12
        </DataArray>
        <DataArray type="Float64" Name="Phase1::RegressionPressure" format="ascii" RangeMin="-4.8163751681" RangeMax="5.1836248392">
          5.1836248392 4.6336249743 4.0836257683 3.5336275568 2.9836306629 2.4336354054
          1.8836429145 1.3804573402 0.88044779589 0.38044207526 -0.11955983188 -0.61955792475
          -1.1195522041 -1.6195426598 -2.1163570928 -2.566364602 -3.0163693445 -3.4663724505
          -3.916374239 -4.3663750329 -4.8163751681
        </DataArray>
        <DataArray type="Float64" Name="Phase1::RegressionPressureError" format="ascii" RangeMin="4.8405723874e-14" RangeMax="4.8738346692e-11">
          4.6529002873e-11 3.9438674548e-11 1.7131185359e-11 3.4566571827e-11 4.8738346692e-11 2.9554581005e-11
          1.7515100481e-11 2.6338264902e-11 2.2959412149e-13 4.8405723874e-14 2.5690283234e-12 4.0157877024e-12
          1.5341949933e-11 1.9773072069e-12 4.1412651086e-11 4.708677892e-12 3.0095037573e-11 3.6000535886e-11
          1.2581047315e-11 1.072919531e-11 3.0536462248e-11
        </DataArray>
        <DataArray type="Float64" Name="Phase1::Time" format="ascii" RangeMin="10" RangeMax="10">
          10 10 10 10 10 10
          10 10 10 10 10 10
          10 10 10 10 10 10
          10 10 10
        </DataArray>
        <DataArray type="Float64" Name="Phase2::Pressure" format="ascii" RangeMin="-4.8163751681" RangeMax="5.1836248392">
          5.1836248392 4.6336249743 4.0836257683 3.5336275568 2.9836306629 2.4336354054
          1.8836429145 1.3804573402 0.88044779589 0.38044207526 -0.11955983188 -0.61955792475
          -1.1195522041 -1.6195426598 -2.1163570928 -2.566364602 -3.0163693445 -3.4663724505
          -3.916374239 -4.3663750329 -4.8163751681
        </DataArray>
        <DataArray type="Float64" Name="Phase2::Saturation" format="ascii" RangeMin="0.0012894887491" RangeMax="0.97395123748">
          0.0012894887491 0.0031176786043 0.0046684646576 0.0061385230097 0.0075683674104 0.0089740877011
          0.060673416184 0.97336844319 0.97395114531 0.97393216674 0.97392575605 0.97393231198
          0.97395123748 0.97336828188 0.060673469257 0.0089740993951 0.0075683772503 0.0061385309812
          0.0046684707114 0.003117682634 0.0012894904041
        </DataArray>
        <DataArray type="Float64" Name="Phase2::RelativePermeability" format="ascii" RangeMin="1.662781234e-06" RangeMax="0.94858101298">
          1.662781234e-06 9.7199198798e-06 2.1794562259e-05 3.7681464741e-05 5.728018526e-05 8.0534250067e-05
          0.0036812634315 0.9474461262 0.94858083345 0.94854386541 0.9485313783 0.94854414832
          0.94858101298 0.94744581218 0.0036812698717 8.0534459952e-05 5.7280334203e-05 3.7681562607e-05
          2.1794618783e-05 9.7199450066e-06 1.6627855024e-06
        </DataArray>
        <DataArray type="Float64" Name="Phase2::Density" format="ascii" RangeMin="1" RangeMax="1">
          1 1 1 1 1 1
          1 1 1 1 1 1
          1 1 1 1 1 1
          1 1 1
        </DataArray>
        <DataArray type="Float64" Name="Phase2::DarcyVelocityOverPorosityCFL" format="ascii" RangeMin="0" RangeMax="0.0038111894111">
          5.4118207894e-05 0.00015820318322 0.00035474990033 0.00061335727643 0.00093238730541 0.0013109002627
          0.0038111894111 0.0027046430231 0.0016231298592 0.00054109554221 0 0.00054109401762
          0.0016231302423 0.0027046517949 0.0038111862008 0.0013109038297 0.00093238983808 0.0006133589401
          0.00035475086098 0.0001582036104 5.4118352824e-05
        </DataArray>
        <DataArray type="Float64" Name="Phase2::Mobility" format="ascii" RangeMin="1.8052796548e-06" RangeMax="0.9464565716">
          1.8052796548e-06 6.1800642421e-06 1.7111592253e-05 3.2295806424e-05 5.156715777e-05 7.4841088721e-05
          0.0020391940923 0.47464205651 0.94588425856 0.94645635065 0.9464375196 0.9464565716
          0.94588419489 0.47464191425 0.002039197136 7.4841292229e-05 5.1567297727e-05 3.2295893964e-05
          1.7111638544e-05 6.1800809049e-06 1.8052844918e-06
        </DataArray>
        <DataArray type="Float64" Name="Phase2::FractionalFlow" format="ascii" RangeMin="1.8176991699e-06" RangeMax="0.9996486833">
          1.8176991699e-06 6.2554675024e-06 1.7402230696e-05 3.2993489249e-05 5.291531766e-05 8.153403096e-05
          0.0046995029365 0.99920818287 0.99963262888 0.99964473156 0.9996486833 0.99964473167
          0.99963262892 0.99920818308 0.0046995119725 8.1534233349e-05 5.2915444975e-05 3.2993589833e-05
          1.7402277882e-05 6.2554842618e-06 1.8177039355e-06
        </DataArray>
        <DataArray type="Float64" Name="Phase2::RegressionSaturation" format="ascii" RangeMin="0.0012894887491" RangeMax="0.97395123748">
          0.0012894887491 0.0031176786043 0.0046684646576 0.0061385230097 0.0075683674104 0.0089740877011
          0.060673416184 0.97336844319 0.97395114531 0.97393216674 0.97392575605 0.97393231198
          0.97395123748 0.97336828188 0.060673469257 0.0089740993951 0.0075683772503 0.0061385309812
          0.0046684707114 0.003117682634 0.0012894904041
        </DataArray>
        <DataArray type="Float64" Name="Phase2::RegressionSaturationError" format="ascii" RangeMin="1.1250115423e-14" RangeMax="3.2264191319e-12">
          1.7513985054e-14 1.1250115423e-14 2.7557817139e-14 1.6606507836e-14 4.9351148168e-14 2.2612120509e-14
          3.02091685e-13 1.359246049e-12 2.210454042e-12 1.1908252162e-12 3.8513636724e-13 1.3473666627e-12
          2.3192558984e-12 3.2264191319e-12 2.1434937159e-13 4.7436013451e-14 1.3228133866e-14 1.5566541112e-14
          1.8331690332e-14 4.4662190612e-14 4.5462114975e-14
        </DataArray>
        <DataArray type="Float64" Name="Phase2::RegressionPressure" format="ascii" RangeMin="-4.8163751681" RangeMax="5.1836248392">
          5.1836248392 4.6336249743 4.0836257683 3.5336275568 2.9836306629 2.4336354054
          1.8836429145 1.3804573402 0.88044779589 0.38044207526 -0.11955983188 -0.61955792475
          -1.1195522041 -1.6195426598 -2.1163570928 -2.566364602 -3.0163693445 -3.4663724505
          -3.916374239 -4.3663750329 -4.8163751681
        </DataArray>
        <DataArray type="Float64" Name="Phase2::RegressionPressureError" format="ascii" RangeMin="4.8405723874e-14" RangeMax="4.8738346692e-11">
          4.6529002873e-11 3.9438674548e-11 1.7131185359e-11 3.4566571827e-11 4.8738346692e-11 2.9554581005e-11
          1.7515100481e-11 2.6338264902e-11 2.2959412149e-13 4.8405723874e-14 2.5690283234e-12 4.0157877024e-12
          1.5341949933e-11 1.9773072069e-12 4.1412651086e-11 4.708677892e-12 3.0095037573e-11 3.6000535886e-11
          1.2581047315e-11 1.072919531e-11 3.0536462248e-11
        </DataArray>
        <DataArray type="Float64" Name="Phase3::Pressure" format="ascii" RangeMin="-4.8163751681" RangeMax="5.1836248392">
          5.1836248392 4.6336249743 4.0836257683 3.5336275568 2.9836306629 2.4336354054
          1.8836429145 1.3804573402 0.88044779589 0.38044207526 -0.11955983188 -0.61955792475
          -1.1195522041 -1.6195426598 -2.1163570928 -2.566364602 -3.0163693445 -3.4663724505
          -3.916374239 -4.3663750329 -4.8163751681
        </DataArray>
        <DataArray type="Float64" Name="Phase3::Saturation" format="ascii" RangeMin="0.00063399495513" RangeMax="0.99807634854">
          0.99807634854 0.99534980284 0.99303634714 0.99084416435 0.9887113722 0.98661458068
          0.93196444616 0.01765943238 0.015712033615 0.014376891101 0.013036987093 0.011690968015
          0.010336933367 0.0089720869975 0.0073622708539 0.0044110526513 0.0037202648306 0.0030175288937
          0.0022949748535 0.0015326902481 0.00063399495513
        </DataArray>
        <DataArray type="Float64" Name="Phase3::RelativePermeability" format="ascii" RangeMin="4.0194960313e-07" RangeMax="0.99615639751">
          0.99615639751 0.99072123 0.98612118674 0.98177215802 0.97755017752 0.9734083308
          0.8685577289 0.00031185555197 0.00024686800032 0.00020669499774 0.00016996303247 0.00013667873314
          0.00010685219144 8.0498345092e-05 5.4203032126e-05 1.9457385493e-05 1.384037041e-05 9.1054806245e-06
          5.2669095781e-06 2.3491393967e-06 4.0194960313e-07
        </DataArray>
        <DataArray type="Float64" Name="Phase3::Density" format="ascii" RangeMin="1.1" RangeMax="1.1">
          1.1 1.1 1.1 1.1 1.1 1.1
          1.1 1.1 1.1 1.1 1.1 1.1
          1.1 1.1 1.1 1.1 1.1 1.1
          1.1 1.1 1.1
        </DataArray>
        <DataArray type="Float64" Name="Phase3::DarcyVelocityOverPorosityCFL" format="ascii" RangeMin="0" RangeMax="0.0047484056535">
          0 4.0106466131e-05 0.00023457610971 0.00052595795931 0.00090936242159 0.0013823248769
          0.0019434313019 0.0047484056535 0.0040135064663 0.0033604504057 0.002763316893 0.0022222171924
          0.0017373174972 0.0013088624058 0.00093721463446 0.00063253624806 0.00044992761142 0.00029599655918
          0.00017120819936 7.6357957411e-05 2.6126236308e-05
        </DataArray>
        <DataArray type="Float64" Name="Phase3::Mobility" format="ascii" RangeMin="4.3575998739e-07" RangeMax="0.99316521193">
          0.99316521193 0.98793835164 0.98327754149 0.97881383568 0.97445830429 0.91781938906
          0.43183783774 0.00030308379694 0.00024601878662 0.00020429292706 0.00016630809774 0.00013207267158
          0.00010159948405 7.3043745042e-05 3.9941917341e-05 1.8055558884e-05 1.244177573e-05 7.7927108543e-06
          4.1292161929e-06 1.4914641932e-06 4.3575998739e-07
        </DataArray>
        <DataArray type="Float64" Name="Phase3::FractionalFlow" format="ascii" RangeMin="4.3875779557e-07" RangeMax="0.99999774354">
          0.99999774354 0.99999223487 0.99997839842 0.99995904546 0.99993431763 0.99989879573
          0.99520844742 0.00063804672562 0.00025999841333 0.00021577365728 0.00017565836887 0.00013949477906
          0.00010737272055 0.0001537704648 9.2049716744e-05 1.9670239616e-05 1.2767046715e-05 7.9610586381e-06
          4.1993504853e-06 1.5096615937e-06 4.3875779557e-07
        </DataArray>
        <DataArray type="Float64" Name="Phase1::DarcyVelocity" NumberOfComponents="3" format="ascii" RangeMin="8.7151871431e-07" RangeMax="0.00029227961556">
          8.7151871431e-07 0 0 2.9829071577e-06 0 0
          8.258308686e-06 0 0 1.5585010107e-05 0 0
          2.4882528204e-05 0 0 3.6108814044e-05 0 0
          5.2363723057e-05 0 0 7.4924615695e-05 0 0
          0.00010161443945 0 0 0.00013208209935 0 0
          0.00016630736979 0 0 0.00020427653368 0 0
          0.00024598033494 0 0 0.00029227961556 0 0
          0.00022322643181 0 0 0.00011094048791 0 0
          7.6445493772e-05 0 0 4.7879229819e-05 0 0
          2.5369379876e-05 0 0 9.1629781749e-06 0 0
          2.6846992417e-06 0 0
        </DataArray>
        <DataArray type="Float64" Name="Phase1::TotalDarcyVelocity" NumberOfComponents="3" format="ascii" RangeMin="1.1633733148e-11" RangeMax="7.9008330214e-09">
          -6.598069966e-09 0 0 2.5831837197e-11 0 0
          -4.9598993274e-10 0 0 -2.8448965977e-10 0 0
          -6.2340079152e-10 0 0 -1.6583881055e-10 0 0
          1.0488512364e-10 0 0 -9.3786677534e-11 0 0
          -1.4346758796e-10 0 0 -2.6987319264e-10 0 0
          1.1633733148e-11 0 0 2.2810131071e-10 0 0
          -2.3273296467e-10 0 0 -2.8117516708e-10 0 0
          5.2305727254e-11 0 0 -1.0700180301e-10 0 0
          -1.1544339069e-10 0 0 1.7393134079e-11 0 0
          -6.1592907617e-11 0 0 7.5932672484e-11 0 0
          7.9008330214e-09 0 0
        </DataArray>
        <DataArray type="Float64" Name="Phase1::BulkDarcyVelocity" NumberOfComponents="3" format="ascii" RangeMin="4.8773538884e-11" RangeMax="0.00020707747114">
          -2.6753492314e-06 0 0 -9.096411166e-06 0 0
          -2.5094387618e-05 0 0 -4.719576427e-05 0 0
          -7.5100299627e-05 0 0 -0.00010862474121 0 0
          -0.00019728659087 0 0 0.00020707732037 0 0
          0.00013779078086 0 0 6.8919573349e-05 0 0
          4.8773538884e-11 0 0 -6.8919548332e-05 0 0
          -0.00013779109322 0 0 -0.00020707747114 0 0
          0.0001972867039 0 0 0.00010862472546 0 0
          7.5099701916e-05 0 0 4.719557713e-05 0 0
          2.5093886887e-05 0 0 9.0965272061e-06 0 0
          2.6766551868e-06 0 0
        </DataArray>
        <DataArray type="Float64" Name="Phase2::DarcyVelocity" NumberOfComponents="3" format="ascii" RangeMin="5.085723201e-11" RangeMax="0.0002173552755">
          1.8052747772e-06 0 0 6.1799780001e-06 0 0
          1.7111085153e-05 0 0 3.2294112016e-05 0 0
          5.1562936288e-05 0 0 7.4831570045e-05 0 0
          0.00017086262932 0 0 0.00021735508998 0 0
          0.00014436581568 0 0 7.2194214876e-05 0 0
          5.085723201e-11 0 0 -7.2194176798e-05 0 0
          -0.00014436612107 0 0 -0.0002173552755 0 0
          -0.00017086264122 0 0 -7.4831773518e-05 0 0
          -5.1563076269e-05 0 0 -3.2294199559e-05 0 0
          -1.7111131449e-05 0 0 -6.1799946673e-06 0 0
          -1.8052796118e-06 0 0
        </DataArray>
        <DataArray type="Float64" Name="Phase3::DarcyVelocity" NumberOfComponents="3" format="ascii" RangeMin="8.7151879684e-07" RangeMax="0.00029227979946">
          -2.6833915615e-06 0 0 -9.162859326e-06 0 0
          -2.5369889829e-05 0 0 -4.7879406613e-05 0 0
          -7.6446087893e-05 0 0 -0.00011094054993 0 0
          -0.00022322624749 0 0 -0.00029227979946 0 0
          -0.0002459803986 0 0 -0.0002042765841 0 0
          -0.00016630740902 0 0 -0.00013208212878 0 0
          -0.00010161444659 0 0 -7.4924621238e-05 0 0
          -5.2363738288e-05 0 0 -3.610882139e-05 0 0
          -2.4882532946e-05 0 0 -1.5585012868e-05 0 0
          -8.2583100201e-06 0 0 -2.982907575e-06 0 0
          -8.7151879684e-07 0 0
        </DataArray>
      </PointData>
      <CellData Scalars="Phase3::Viscosity" Vectors="Phase1::GravityDirection">
        <DataArray type="Float64" Name="Phase1::Viscosity" format="ascii" RangeMin="1" RangeMax="1">
          1 1 1 1 1 1
          1 1 1 1 1 1
          1 1 1 1 1 1
          1 1
        </DataArray>
        <DataArray type="Float64" Name="Phase1::Porosity" format="ascii" RangeMin="0.5" RangeMax="0.5">
          0.5 0.5 0.5 0.5 0.5 0.5
          0.5 0.5 0.5 0.5 0.5 0.5
          0.5 0.5 0.5 0.5 0.5 0.5
          0.5 0.5
        </DataArray>
        <DataArray type="Float64" Name="Phase1::AbsolutePermeability" format="ascii" RangeMin="1" RangeMax="1">
          1 1 1 1 1 1
          1 1 1 1 1 1
          1 1 1 1 1 1
          1 1
        </DataArray>
        <DataArray type="Float64" Name="Phase2::Viscosity" format="ascii" RangeMin="1" RangeMax="1">
          1 1 1 1 1 1
          1 1 1 1 1 1
          1 1 1 1 1 1
          1 1
        </DataArray>
        <DataArray type="Float64" Name="Phase3::Viscosity" format="ascii" RangeMin="1" RangeMax="1">
          1 1 1 1 1 1
          1 1 1 1 1 1
          1 1 1 1 1 1
          1 1
        </DataArray>
        <DataArray type="Float64" Name="Phase1::GravityDirection" NumberOfComponents="3" format="ascii" RangeMin="1" RangeMax="1">
          -1 0 0 -1 0 0
          -1 0 0 -1 0 0
          -1 0 0 -1 0 0
          -1 0 0 -1 0 0
          -1 0 0 -1 0 0
          -1 0 0 -1 0 0
          -1 0 0 -1 0 0
          -1 0 0 -1 0 0
          -1 0 0 -1 0 0
          -1 0 0 -1 0 0
        </DataArray>
      </CellData>
      <Points>
        <DataArray type="Float64" Name="Points" NumberOfComponents="3" format="ascii" RangeMin="0" RangeMax="1">
          0 0 0 0.05 0 0
          0.1 0 0 0.15 0 0
          0.2 0 0 0.25 0 0
          0.3 0 0 0.35 0 0
          0.4 0 0 0.45 0 0
          0.5 0 0 0.55 0 0
          0.6 0 0 0.65 0 0
          0.7 0 0 0.75 0 0
          0.8 0 0 0.85 0 0
          0.9 0 0 0.95 0 0
          1 0 0
        </DataArray>
      </Points>
      <Cells>
        <DataArray type="Int64" Name="connectivity" format="ascii" RangeMin="0" RangeMax="20">
          0 1 1 2 2 3
          3 4 4 5 5 6
          6 7 7 8 8 9
          9 10 10 11 11 12
          12 13 13 14 14 15
          15 16 16 17 17 18
          18 19 19 20
        </DataArray>
        <DataArray type="Int64" Name="offsets" format="ascii" RangeMin="2" RangeMax="40">
          2 4 6 8 10 12
          14 16 18 20 22 24
          26 28 30 32 34 36
          38 40
        </DataArray>
        <DataArray type="UInt8" Name="types" format="ascii" RangeMin="3" RangeMax="3">
          3 3 3 3 3 3
          3 3 3 3 3 3
          3 3 3 3 3 3
          3 3
        </DataArray>
      </Cells>
    </Piece>
  </UnstructuredGrid>
</VTKFile>
