<VTKFile type="UnstructuredGrid" version="0.1" byte_order="LittleEndian">
  <UnstructuredGrid>
    <Piece NumberOfPoints="126" NumberOfCells="200">
      <PointData Scalars="Phase1::Pressure" Vectors="Phase1::DarcyVelocity">
        <DataArray type="Float64" Name="Phase1::Pressure" format="ascii" RangeMin="-4.68576986" RangeMax="5.3411835779">
          5.313928699 5.3411835779 -4.6584718035 -4.68576986 5.3171647551 5.3269139705
          5.3359583927 5.3404811237 -4.6592149974 -4.6635203419 -4.6723902003 -4.6823032755
          4.7637264965 4.2131183879 3.6621051237 3.1106953274 2.5589169818 2.0068379949
          1.5059412052 1.0050259333 0.50372164969 0.001920089454 -0.50051957566 -1.0037955115
          -1.5081838841 -1.9577887798 -2.4077514525 -2.8578946267 -3.3081006881 -3.7582931423
          -4.2084252471 4.7912275832 4.2413506305 3.6915232789 3.1416904241 2.5917612352
          2.041594635 1.490974365 0.99575080883 0.49925640378 0.0018200741353 -0.49633363719
          -0.99505417307 -1.4942366601 -1.993641925 -2.4412604636 -2.8892793991 -3.3377364585
          -3.7866399795 -4.2359864655 4.7669618587 4.2163368618 3.6652436655 3.1135982052
          2.5612646597 2.0080353021 1.508281321 1.0081598402 0.50772402286 0.0070498121711
          -0.49381639687 -0.99484380531 -1.4960016274 -1.9549082358 -2.4062895817 -2.8573750584
          -3.3081937711 -3.7587655396 -4.2091033885 4.7769367522 4.2270110036 3.6771585936
          3.1274196482 2.5778596152 2.0285879451 1.5176521078 1.0163700033 0.51559471931
          0.015303565195 -0.48448534899 -0.98371200458 -1.4822622835 -1.9573332321 -2.4094579529
          -2.8610380817 -3.3121746985 -3.7629382537 -4.2133772188 4.7861001901 4.2365351497
          3.687291987 3.138419053 2.5899866089 2.0420953779 1.5179954886 1.0165441
          0.51577339735 0.01557706216 -0.48409927645 -0.98326820834 -1.4819005648 -1.9702022712
          -2.4211191698 -2.8716915625 -3.3220433962 -3.7722497081 -4.222356849 4.7906008297
          4.2409641985 3.6915829746 3.1424777376 2.5936808992 2.0452418394 1.5050819921
          1.0059571564 0.50681389139 0.0075860066664 -0.49177764483 -0.99133317773 -1.4911573391
          -1.9912880714 -2.4381208387 -2.8858250489 -3.3342023231 -3.7831222769 -4.2325040725
        </DataArray>
        <DataArray type="Float64" Name="Phase1::Saturation" format="ascii" RangeMin="0.00044377654709" RangeMax="0.99864993673">
          0.00079900640796 0.00044377654709 0.99864993673 0.99757003409 0.00066249975597 0.00066239970717
          0.00065617855821 0.00061030284716 0.99814334996 0.99800291996 0.99798378306 0.9979838953
          0.0014403692547 0.0022270773584 0.0029171907879 0.0038045402659 0.0042574098423 0.0084709677809
          0.0095757453853 0.010937525814 0.012199766192 0.013422312639 0.014984962999 0.015807922663
          0.38601554793 0.98654335385 0.98830479402 0.99038973503 0.99244297098 0.99451981437
          0.99664687455 0.0010662808984 0.0017479464019 0.00241845544 0.0030845790155 0.00376551018
          0.0043182773903 0.0070979679844 0.0087459032476 0.010191664563 0.011555176679 0.012887657642
          0.014204414877 0.015394012397 0.27525314157 0.98709501533 0.98844261307 0.99105906979
          0.99296272599 0.9956862885 0.0013138762647 0.0020625155159 0.0027800837941 0.0035237982211
          0.0041110090055 0.0068048876369 0.0086037846905 0.010044082654 0.011429784119 0.012819800093
          0.014245797105 0.015415134255 0.027171842876 0.98553779273 0.98777412874 0.98990086826
          0.99196532366 0.99407982101 0.99624722836 0.0012948605379 0.0020328607951 0.0027420554346
          0.0034742503859 0.0040496027396 0.0056736421842 0.0081107367219 0.0094880364707 0.010925771052
          0.01234511326 0.013815045658 0.01502519783 0.019736649234 0.98319016406 0.98768190011
          0.98952690774 0.9916909001 0.99384856672 0.99607166541 0.0012916549703 0.0020209413831
          0.0027306770674 0.0034276566427 0.0040679215923 0.0051068321997 0.0079940121915 0.0093506488756
          0.010715599127 0.012109953614 0.013503398217 0.014842459363 0.017087051101 0.97915099996
          0.98769951617 0.98941939332 0.99166334745 0.99380877983 0.9960602069 0.0012436387645
          0.0019558844137 0.0026486560149 0.0033204993134 0.0040285220006 0.0046780671121 0.0079692964122
          0.0092638398992 0.010600987574 0.011946528979 0.01327641027 0.014702312549 0.015743633178
          0.90420603989 0.98753808245 0.98931496848 0.99161016339 0.99374358882 0.9960015901
        </DataArray>
        <DataArray type="Float64" Name="Phase1::RelativePermeability" format="ascii" RangeMin="1.9693762375e-07" RangeMax="0.99730169613">
          6.3841123996e-07 1.9693762375e-07 0.99730169613 0.99514597291 4.3890592666e-07 4.3877337206e-07
          4.3057030026e-07 3.7246956525e-07 0.99629014707 0.99600982824 0.99597163125 0.99597185528
          2.0746635899e-06 4.9598735603e-06 8.5100020929e-06 1.4474526635e-05 1.8125538565e-05 7.1757295144e-05
          9.1694899684e-05 0.00011962947093 0.00014883429515 0.00018015847658 0.00022454911608 0.00024989041891
          0.14900800324 0.97326778902 0.97674636588 0.98087182725 0.98494305064 0.98906966118
          0.99330499256 1.1369549544e-06 3.0553166238e-06 5.8489267152e-06 9.514627703e-06 1.4179066916e-05
          1.864751962e-05 5.0381149507e-05 7.6490823616e-05 0.00010387002656 0.00013352210807 0.00016609171949
          0.00020176540201 0.00023697561768 0.075764291946 0.9743565693 0.97701879933 0.98219807982
          0.9859749752 0.99139118511 1.7262708388e-06 4.2539702535e-06 7.7288659023e-06 1.2417153903e-05
          1.6900395044e-05 4.6306495751e-05 7.4025111e-05 0.00010088359637 0.000130639965 0.00016434727443
          0.00020294273514 0.00023762636411 0.0007383090453 0.9712847409 0.97569772941 0.97990372899
          0.98399520334 0.98819469054 0.99250854002 1.6766638125e-06 4.1325230123e-06 7.5188680065e-06
          1.2070415744e-05 1.6399282349e-05 3.2190215634e-05 6.5784050172e-05 9.002283607e-05 0.00011937247309
          0.0001524018214 0.00019085548654 0.00022575656984 0.00038953532299 0.96666289871 0.97551553581
          0.97916350115 0.98345084134 0.98773497356 0.99215876264 1.6683725623e-06 4.084204074e-06
          7.4565972465e-06 1.174883006e-05 1.6547986081e-05 2.6079735116e-05 6.3904230918e-05 8.7434634395e-05
          0.00011482406464 0.00014665097654 0.0001823417634 0.00022029859996 0.00029196731534 0.95873668072
          0.97555033424 0.97895073588 0.98339619468 0.98765589088 0.99213593577 1.5466373766e-06
          3.8254838396e-06 7.0153786851e-06 1.102571569e-05 1.6228989509e-05 2.1884311905e-05 6.3509685306e-05
          8.5818729678e-05 0.00011238093754 0.00014271955465 0.00017626306966 0.0002161579943 0.00024786198565
          0.81758856256 0.97523146428 0.97874410686 0.98329071614 0.98752632031 0.99201916748
        </DataArray>
        <DataArray type="Float64" Name="Phase1::Density" format="ascii" RangeMin="0.9" RangeMax="0.9">
          0.9 0.9 0.9 0.9 0.9 0.9
          0.9 0.9 0.9 0.9 0.9 0.9
          0.9 0.9 0.9 0.9 0.9 0.9
          0.9 0.9 0.9 0.9 0.9 0.9
          0.9 0.9 0.9 0.9 0.9 0.9
          0.9 0.9 0.9 0.9 0.9 0.9
          0.9 0.9 0.9 0.9 0.9 0.9
          0.9 0.9 0.9 0.9 0.9 0.9
          0.9 0.9 0.9 0.9 0.9 0.9
          0.9 0.9 0.9 0.9 0.9 0.9
          0.9 0.9 0.9 0.9 0.9 0.9
          0.9 0.9 0.9 0.9 0.9 0.9
          0.9 0.9 0.9 0.9 0.9 0.9
          0.9 0.9 0.9 0.9 0.9 0.9
          0.9 0.9 0.9 0.9 0.9 0.9
          0.9 0.9 0.9 0.9 0.9 0.9
          0.9 0.9 0.9 0.9 0.9 0.9
          0.9 0.9 0.9 0.9 0.9 0.9
          0.9 0.9 0.9 0.9 0.9 0.9
          0.9 0.9 0.9 0.9 0.9 0.9
          0.9 0.9 0.9 0.9 0.9 0.9
        </DataArray>
        <DataArray type="Float64" Name="Phase1::DarcyVelocityOverPorosityCFL" format="ascii" RangeMin="9.5323005558e-07" RangeMax="0.084805864437">
          2.0631336602e-06 9.5323005558e-07 0.00074249097228 0.0052026506386 1.6551440618e-06 1.6541639534e-06
          1.6241810643e-06 1.4174291744e-06 0.0025201327197 0.0065801580119 0.012017131198 0.012203798324
          5.6501275368e-06 1.2356661784e-05 2.1068248749e-05 3.2719846209e-05 4.4826432675e-05 8.064155726e-05
          0.00010454878252 0.00013502779457 0.00017092862503 0.0002105544589 0.00025772250653 0.00030571264404
          0.0064942138538 0.0097069929227 0.0074478757593 0.0073789977165 0.0060967003872 0.0040461791691
          0.0015632276053 2.9050184386e-06 7.3383965096e-06 1.3660086667e-05 2.1862687483e-05 3.1993783401e-05
          4.3679866353e-05 6.3903118298e-05 8.0437939027e-05 0.00010998246319 0.00014264386153 0.00017880841324
          0.00021866939656 0.00026243662551 0.03622515103 0.052691988248 0.04195878794 0.031681150112
          0.021896009539 0.012518252317 4.5389867486e-06 1.0459500259e-05 1.8557255937e-05 2.8991354533e-05
          4.0719766591e-05 6.3566294438e-05 8.5083245381e-05 0.00011595231728 0.00014966078688 0.00018814408461
          0.00023090255532 0.00027534918468 0.00036433405185 0.030398426813 0.023110018743 0.017287017567
          0.012182243192 0.0075586567104 0.0043428781006 4.3835645064e-06 1.007317007e-05 1.7795076223e-05
          2.7675971406e-05 3.882254318e-05 5.549903041e-05 7.7595259425e-05 0.00010457556345 0.00013645790638
          0.00017197838623 0.0002114572532 0.00025247702954 0.00030594101382 0.060408632637 0.03151643134
          0.022979245627 0.016083590502 0.010931296046 0.008195406028 4.3166664428e-06 9.8584807917e-06
          1.7372162133e-05 2.6775155918e-05 3.7897138925e-05 5.1902329722e-05 7.6556505253e-05 0.00010059678772
          0.00013007129863 0.00016375665271 0.00020108245706 0.00024231386458 0.0002867030871 0.084805864437
          0.022022372656 0.015681952789 0.012404100158 0.011646633288 0.011966045412 3.9658181173e-06
          9.173193824e-06 1.6278533521e-05 2.5205527394e-05 3.6140066052e-05 4.8509187227e-05 7.3486080343e-05
          9.4364695635e-05 0.00012335044757 0.00015642010502 0.00019350407457 0.00023514299598 0.00027807122298
          0.083392474713 0.057280576907 0.042937790598 0.031400004369 0.021751277307 0.013515080229
        </DataArray>
        <DataArray type="Float64" Name="Phase1::DivergenceTotalDarcyVelocity" format="ascii" RangeMin="-3.73025104e-08" RangeMax="4.6066401517e-08">
          4.1208232139e-09 2.7624068709e-10 2.8458812709e-10 2.3260791872e-10 5.513929157e-11 -5.5257800289e-10
          -2.1442602468e-11 7.2003618888e-10 2.1961295669e-10 3.2879024352e-10 8.822588625e-11 2.2768283564e-09
          -1.352450955e-08 -2.3834131717e-09 -1.3841848327e-08 5.9597146662e-09 2.7554421418e-08 -4.4687675808e-09
          -6.055051576e-09 4.4960846136e-09 8.0341485248e-09 1.5899884637e-08 6.1791229539e-09 -1.2271387218e-08
          7.0256165982e-09 1.985920264e-08 6.0580414899e-09 -8.2172166993e-09 -5.5721954228e-09 1.5290827828e-08
          -1.5828062637e-09 3.1415722237e-09 8.0504122032e-09 -4.4478657845e-09 -7.1725096782e-09 -3.0413362475e-09
          1.7035981046e-08 1.2254698413e-08 -2.4795699431e-08 -7.3832374459e-09 -4.5581388646e-09 -1.6709497894e-08
          -1.7049987622e-09 -3.73025104e-08 1.5215210504e-08 -1.2928124746e-08 -6.0786552353e-09 -2.6115021651e-08
          4.6066401517e-08 2.0371318204e-08 -2.6490366606e-08 -2.8349168499e-09 -9.2153981061e-09 -3.771946297e-09
          -5.0867678125e-10 -2.2745593278e-08 2.7771536601e-08 2.2200000488e-09 1.6288489921e-08 -2.9965730504e-09
          -6.8347247705e-10 1.6075517815e-08 -5.805639375e-10 2.696160785e-09 -2.2439508671e-09 -3.8974616483e-10
          1.4842463235e-09 -4.577007503e-09 -4.5688361926e-09 -1.1088085875e-08 -3.7232645786e-09 -2.0634384501e-09
          -5.1029849725e-09 -1.1480625868e-08 -2.6551467981e-09 2.1825920222e-09 3.1140125445e-09 5.0660496472e-09
          9.6476709825e-09 7.0262155965e-09 2.1714665498e-09 4.3921440463e-10 3.7599111653e-09 -8.4377323451e-09
          5.268925057e-10 8.1138938374e-10 -5.4996405002e-09 -1.6310021403e-08 1.8595571805e-09 4.6663121717e-09
          1.2726162572e-08 1.8369783559e-09 -3.3749248188e-09 -4.4912052918e-09 7.3160402449e-09 -1.0862995041e-08
          2.6133522172e-09 -1.1971360486e-08 -3.6098725941e-09 -7.3346243597e-09 -3.6771789996e-09 3.0036716358e-09
          -1.077749218e-08 1.8445827298e-09 5.9426552487e-09 -8.8952829799e-09 2.5905266776e-08 2.1009426718e-08
          1.0424679306e-08 2.4499950679e-10 -3.5221177537e-09 -5.5152632027e-09 -1.7781685846e-09 2.0499212327e-09
          -1.2979229144e-08 -1.5883401366e-08 -2.1078239416e-08 -7.7365140468e-09 4.0806969171e-09 1.2035197714e-08
          -2.9939825438e-08 2.6758048301e-08 -5.2436853578e-09 2.0011544604e-08 1.0530391148e-08 2.8227664341e-08
        </DataArray>
        <DataArray type="Float64" Name="Phase1::Mobility" format="ascii" RangeMin="1.9778457468e-07" RangeMax="0.99644004537">
          6.1610771514e-07 1.9778457468e-07 0.99644004537 0.9946990288 4.4078454861e-07 4.40336404e-07
          4.303807971e-07 3.6251073821e-07 0.99561580168 0.9952056633 0.99555201512 0.99554745714
          1.9343423423e-06 4.6634272234e-06 8.2996761668e-06 1.3335201664e-05 1.8326246873e-05 5.7543706512e-05
          8.7379666135e-05 0.000113727454 0.00014394687464 0.00017670351235 0.00021588381142 0.00025180407782
          0.33945639094 0.97315304533 0.97617498324 0.98026196414 0.98451834655 0.98849665272
          0.99287899259 8.7768158948e-07 2.6443501656e-06 5.3013615732e-06 8.8422989581e-06 1.3292302164e-05
          1.8359707709e-05 4.0888728772e-05 7.2313223481e-05 9.8824591257e-05 0.00012792783526 0.00016003683529
          0.0001953080308 0.00023353176415 0.31181468084 0.97423689398 0.9779809513 0.9825020419
          0.98689751785 0.99177085219 1.4618015066e-06 3.8271509079e-06 7.1916541423e-06 1.1578151527e-05
          1.6544261379e-05 3.7893062307e-05 7.0227842651e-05 9.6987849005e-05 0.00012619161236 0.00015957809096
          0.00019664609708 0.00023505526068 0.00066854595822 0.68549640059 0.97505539606 0.97899977086
          0.98315447819 0.98748022891 0.99195624705 1.4034455618e-06 3.6902824539e-06 6.9426158307e-06
          1.1191926729e-05 1.6115928151e-05 2.9546537803e-05 5.9654184683e-05 8.6394217202e-05 0.00011506922513
          0.00014757285947 0.00018437883763 0.00022370472424 0.0003668905073 0.61362994892 0.97381180761
          0.97852450623 0.98270528342 0.98702172333 0.99169218299 1.3761609686e-06 3.6126958872e-06
          6.7994444856e-06 1.0904196925e-05 1.5904139045e-05 2.5094792613e-05 5.505844864e-05 8.352580918e-05
          0.00011035248453 0.00014146549682 0.00017651529072 0.00021591415418 0.00028363538659 0.60120649481
          0.97204000776 0.978781571 0.98346095332 0.98793329596 0.99248675995 1.2337237216e-06
          3.3203502877e-06 6.3173666545e-06 1.0201267141e-05 1.5041129848e-05 2.133287309e-05 5.0502155079e-05
          8.0937351691e-05 0.00010700191838 0.00013676282481 0.00017012943856 0.00020745989253 0.00024603384395
          0.53434026172 0.97484865213 0.97941681409 0.983796843 0.98814827176 0.99238557897
        </DataArray>
        <DataArray type="Float64" Name="Phase1::TotalMobility" format="ascii" RangeMin="0.56113006276" RangeMax="0.99648630797">
          0.99495011578 0.99648630797 0.99644106812 0.99470221261 0.99555023781 0.99555384522
          0.99519983362 0.99553629294 0.99561767631 0.995207891 0.99555429488 0.99554973813
          0.99175573286 0.98703426967 0.98270173653 0.97812923629 0.97437601056 0.6969215491
          0.86928365792 0.95053852357 0.95056917258 0.95070525698 0.95048446188 0.95121993757
          0.73777839994 0.97325070527 0.97624571195 0.98030910428 0.98454667245 0.98851081234
          0.9928836682 0.99287165831 0.98873194058 0.98479165784 0.98061128865 0.97702150396
          0.97393876142 0.75136282235 0.95117859372 0.95075967701 0.95078037095 0.95067487064
          0.95078374566 0.88365193471 0.68605724536 0.97433071646 0.97804960717 0.98254533399
          0.98692197671 0.99178074347 0.99252828372 0.98815365532 0.98376685938 0.97947989395
          0.97491807816 0.73549123467 0.81476646084 0.95159933874 0.95131706967 0.95127498135
          0.95120563567 0.95101343144 0.56113006276 0.68561060382 0.97513359107 0.97905273474
          0.98318717259 0.98749735402 0.99196258373 0.99249214761 0.98795071644 0.98375681706
          0.97908816241 0.97193673135 0.59876087192 0.66294949749 0.95185341237 0.95193099637
          0.9518504893 0.95184173149 0.95065263863 0.59988190361 0.61378349327 0.97389419493
          0.97858117143 0.98274048864 0.9870404017 0.99169928262 0.99167831859 0.9870125267
          0.98270938304 0.97853577043 0.97379240212 0.6135393163 0.60012777594 0.95072062462
          0.95184436063 0.95184292869 0.95194491695 0.95184096069 0.66235160762 0.60144732416
          0.9721230516 0.97883946657 0.98349684253 0.98795240949 0.99249402237 0.99196255151
          0.98747949394 0.98319355058 0.97914285406 0.97508286006 0.68903996802 0.56465680116
          0.95105433871 0.9512289539 0.95128760187 0.95135093525 0.95160941719 0.81818221696
          0.71309906244 0.97493352184 0.97947632317 0.98383352196 0.98816795619 0.99239313276
        </DataArray>
        <DataArray type="Float64" Name="Phase1::FractionalFlow" format="ascii" RangeMin="1.9848197923e-07" RangeMax="0.99999897359">
          6.1923477908e-07 1.9848197923e-07 0.99999897359 0.99999679924 4.4275470174e-07 4.4230295138e-07
          4.3245666103e-07 3.6413613524e-07 0.99999811712 0.99999776157 0.99999771005 0.99999770882
          1.9504221435e-06 4.724686231e-06 8.44577338e-06 1.3633373964e-05 1.8808187676e-05 8.2568413312e-05
          0.0001005191635 0.00011964528652 0.00015143229845 0.000185865715 0.00022713028995 0.00026471698908
          0.46010616597 0.99989965592 0.9999275503 0.99995191298 0.9999712295 0.99998567581
          0.99999529088 8.839829218e-07 2.6744864377e-06 5.3832316014e-06 9.0171294788e-06 1.3604922829e-05
          1.8850987799e-05 5.4419419694e-05 7.6024864267e-05 0.00010394276666 0.00013455035376 0.00016834023938
          0.00020541793199 0.00026428026124 0.45450242374 0.99990370572 0.99992980329 0.99995593884
          0.99997521702 0.99999002674 1.4728058944e-06 3.873032182e-06 7.3103236541e-06 1.1820713829e-05
          1.6969899061e-05 5.1520753098e-05 8.6193831026e-05 0.00010192088735 0.00013264937252 0.00016775180058
          0.00020673352817 0.00024716292421 0.0011914278036 0.99983342844 0.99991981098 0.99994590294
          0.99996674651 0.99998265807 0.99999361197 1.4140621315e-06 3.7352900225e-06 7.057248001e-06
          1.1430969303e-05 1.6581252288e-05 4.9346139986e-05 8.9983000075e-05 9.0764203899e-05 0.0001208797965
          0.00015503785639 0.00019370745317 0.00023531699713 0.00061160455932 0.99974983955 0.99991540424
          0.99994209454 0.99996417648 0.99998107638 0.99999284095 1.3877090411e-06 3.6602330664e-06
          6.9190796414e-06 1.1143381013e-05 1.6332165881e-05 4.0901686243e-05 9.1744543159e-05 8.7855261595e-05
          0.00011593542925 0.00014862273233 0.00018542595016 0.00022683847733 0.00042822480285 0.99959958363
          0.99991457476 0.99994085285 0.99996350857 0.99998065339 0.99999268265 1.2437200575e-06
          3.3624498616e-06 6.4253540423e-06 1.041856875e-05 1.5425488913e-05 3.096028399e-05 8.9438673148e-05
          8.5102762689e-05 0.0001124880797 0.00014376601202 0.00017882931761 0.00021800949925 0.00030070788493
          0.74932122318 0.99991294821 0.99993924398 0.99996271833 0.99998007987 0.99999238831
        </DataArray>
        <DataArray type="Float64" Name="Phase1::SumSaturation" format="ascii" RangeMin="0.99999986439" RangeMax="1.0000001731">
          0.99999999281 0.9999999993 0.99999999984 0.99999999502 1.0000000021 0.99999999517
          1.0000000116 0.99999998781 1.0000000174 0.99999999813 0.99999999209 0.99999997356
          1.0000000398 1.0000000297 1.0000000597 1.0000000021 1.0000000075 1.0000000077
          0.99999999808 0.99999990699 0.99999995363 0.99999990132 0.99999990896 0.99999991916
          0.99999994994 0.99999997077 0.99999998788 0.99999999637 1.0000000138 0.9999999794
          0.99999999379 0.99999988832 0.99999996912 1.0000000052 0.99999999405 1.0000000164
          1.000000056 1.00000006 1.0000001319 1.0000000883 1.0000000682 1.0000000976
          1.0000000108 1.0000000908 0.99999997937 1.0000000422 0.99999995029 1.0000000299
          0.99999992292 0.99999993261 1.0000001132 1.0000000678 1.0000000708 1.0000000454
          1.0000000175 0.99999999901 0.99999996025 0.99999996967 0.9999999848 0.99999993266
          0.99999996402 0.99999993941 0.99999994736 1.0000000049 1.0000000182 1.0000000179
          1.0000000194 1.0000000303 1.0000000546 1.0000001731 1.0000000499 1.0000000504
          1.0000000358 1.0000000312 1.0000000119 0.99999998065 0.99999998367 0.99999998272
          0.99999999368 1.0000000193 1.0000000093 1.0000000158 0.99999995591 1.0000000655
          1.0000000134 1.000000015 1.0000000159 1.0000000373 0.99999996769 0.99999998517
          0.99999996817 0.99999999013 0.99999997682 0.99999994617 0.999999981 1.0000000458
          0.99999999011 1.0000000123 0.99999999111 1.0000000154 0.99999998592 1.0000000506
          0.99999991953 0.99999998557 0.99999993718 0.99999996367 0.99999986648 0.99999993774
          0.99999996571 0.99999996996 0.99999995384 0.9999999984 1.0000000393 0.99999996588
          1.0000001535 1.0000000913 1.0000000212 1.0000000514 1.0000000053 0.99999999215
          1.0000000152 0.9999999404 0.99999997313 0.99999996615 0.9999999531 0.99999986439
        </DataArray>
        <DataArray type="Float64" Name="Phase1::AveragePressure" format="ascii" RangeMin="-4.68576986" RangeMax="5.3411835779">
          5.313928699 5.3411835779 -4.6584718035 -4.68576986 5.3171647551 5.3269139705
          5.3359583927 5.3404811237 -4.6592149974 -4.6635203419 -4.6723902003 -4.6823032755
          4.7637264965 4.2131183879 3.6621051237 3.1106953274 2.5589169818 2.0068379949
          1.5059412052 1.0050259333 0.50372164969 0.001920089454 -0.50051957566 -1.0037955115
          -1.5081838841 -1.9577887798 -2.4077514525 -2.8578946267 -3.3081006881 -3.7582931423
          -4.2084252471 4.7912275832 4.2413506305 3.6915232789 3.1416904241 2.5917612352
          2.041594635 1.490974365 0.99575080883 0.49925640378 0.0018200741353 -0.49633363719
          -0.99505417307 -1.4942366601 -1.993641925 -2.4412604636 -2.8892793991 -3.3377364585
          -3.7866399795 -4.2359864655 4.7669618587 4.2163368618 3.6652436655 3.1135982052
          2.5612646597 2.0080353021 1.508281321 1.0081598402 0.50772402286 0.0070498121711
          -0.49381639687 -0.99484380531 -1.4960016274 -1.9549082358 -2.4062895817 -2.8573750584
          -3.3081937711 -3.7587655396 -4.2091033885 4.7769367522 4.2270110036 3.6771585936
          3.1274196482 2.5778596152 2.0285879451 1.5176521078 1.0163700033 0.51559471931
          0.015303565195 -0.48448534899 -0.98371200458 -1.4822622835 -1.9573332321 -2.4094579529
          -2.8610380817 -3.3121746985 -3.7629382537 -4.2133772188 4.7861001901 4.2365351497
          3.687291987 3.138419053 2.5899866089 2.0420953779 1.5179954886 1.0165441
          0.51577339735 0.01557706216 -0.48409927645 -0.98326820834 -1.4819005648 -1.9702022712
          -2.4211191698 -2.8716915625 -3.3220433962 -3.7722497081 -4.222356849 4.7906008297
          4.2409641985 3.6915829746 3.1424777376 2.5936808992 2.0452418394 1.5050819921
          1.0059571564 0.50681389139 0.0075860066664 -0.49177764483 -0.99133317773 -1.4911573391
          -1.9912880714 -2.4381208387 -2.8858250489 -3.3342023231 -3.7831222769 -4.2325040725
        </DataArray>
        <DataArray type="Float64" Name="Phase1::AverageDensity" format="ascii" RangeMin="0.90017938304" RangeMax="1.0998206263">
          1.0996771138 1.0998206263 0.90017938304 0.90032289257 1.0997321703 1.0997321612
          1.0997347106 1.0997533043 0.9002467121 0.9002653247 0.90026785597 0.90026783636
          1.0994184227 1.0991011813 1.0988243356 1.0984679633 1.0982862505 1.0328106816
          1.0005957065 1.0003404503 1.0000811345 0.99982560432 0.99953310485 0.99930641864
          0.96211555152 0.90178694063 0.90155289879 0.90127639801 0.90100379376 0.90072800411
          0.90044549384 1.0995688163 1.0992932028 1.099021585 1.0987526253 1.0984734938
          1.0982572004 1.0358469115 1.0007284972 1.0004705484 1.0001932875 0.99993992475
          0.99966720535 0.99942899888 0.97332449394 0.90171715558 0.90153756865 0.90118923238
          0.90093550586 0.90057328378 1.0994693843 1.0991672117 1.0988790178 1.0985788055
          1.0983435972 1.0877648156 1.0007154172 1.0004643481 1.0001843526 0.99991263455
          0.99963546914 0.99938462349 0.99808079151 0.90191226246 0.90162398046 0.90134085069
          0.90106701953 0.90078639758 0.90049861885 1.099476674 1.0991779099 1.0988919976
          1.0985933155 1.0983644399 1.0973074773 1.0008879941 1.0005355592 1.000257444
          0.99997592188 0.9996898482 0.99943227034 0.99882514584 0.90218847325 0.90163851481
          0.90138961535 0.90110349267 0.90081695609 0.90052188227 1.0994775079 1.0991819845
          1.0988944221 1.0986087742 1.0983603157 1.097788912 1.0011573609 1.000567403
          1.0003086419 1.0000237747 0.99974062927 0.99946352138 0.99910188181 0.90264649148
          0.90163468592 0.90140493766 0.90110770874 0.90082241031 0.90052330352 1.099497009
          1.0992086488 1.0989273 1.098654688 1.0983699907 1.0980762495 1.0018394863
          1.0006157473 1.0003661922 1.0000864293 0.99981659585 0.99953451524 0.99928499463
          0.91025653314 0.90165748162 0.90142065748 0.9011155766 0.90083148056 0.90053124887
        </DataArray>
        <DataArray type="Float64" Name="Phase1::RegressionSaturation" format="ascii" RangeMin="0.00044378074554" RangeMax="0.99864989899">
          0.00079902122139 0.00044378074554 0.99864989899 0.99756992892 0.00066251186581 0.00066240964814
          0.00065618492516 0.00061030907535 0.9981432762 0.99800285064 0.99798370433 0.99798381857
          0.0014403957252 0.0022271262761 0.0029172650524 0.0038046547017 0.0042575398953 0.0084712392782
          0.0095760701813 0.010937908405 0.012200212316 0.01342282863 0.014985556609 0.01580854925
          0.38601661224 0.98654299799 0.98830450259 0.99038950089 0.99244279575 0.99451969239
          0.99664680209 0.0010662351025 0.0017478739271 0.0024183667197 0.0030844820963 0.0037654156582
          0.004318185586 0.0070978786004 0.0087458657769 0.010191687834 0.011555272553 0.012887836061
          0.014204686627 0.015394370208 0.27525052984 0.98709441956 0.98844205911 0.9910586804
          0.99296240493 0.99568611813 0.0013139073412 0.0020625659004 0.0027801558856 0.003523895185
          0.0041111234284 0.0068051187552 0.0086040616398 0.010044411155 0.011430168429 0.012820248805
          0.014246318909 0.015415717389 0.027172911702 0.98553737418 0.98777380975 0.98990061054
          0.99196513436 0.99407969467 0.99624720916 0.0012948902742 0.002032905043 0.0027421132693
          0.0034743224295 0.0040496890073 0.0056737982899 0.0081109418811 0.0094882853733 0.010926069068
          0.012345472387 0.013815477051 0.015025699766 0.019737351648 0.98318953805 0.98768153054
          0.98952657628 0.99169064162 0.99384837097 0.99607155199 0.0012916721888 0.0020209609588
          0.0027306980491 0.0034276806016 0.0040679568416 0.0051068917499 0.0079941103648 0.009350791743
          0.010715795044 0.012110214577 0.013503734922 0.014842882707 0.017087578115 0.97915015307
          0.9876990271 0.98941894474 0.9916630089 0.9938085172 0.99606006982 0.0012436242784
          0.0019558480562 0.0026486054773 0.0033204438702 0.0040284693849 0.0046780388035 0.007969271769
          0.0092638668303 0.010601074925 0.011946687597 0.01327665096 0.014702651381 0.015744051278
          0.90420371382 0.98753749636 0.98931451769 0.9916098007 0.99374329953 0.99600143105
        </DataArray>
        <DataArray type="Float64" Name="Phase1::RegressionSaturationError" format="ascii" RangeMin="4.1984475949e-09" RangeMax="2.6117329988e-06">
          1.4813431999e-08 4.1984475949e-09 3.7740499503e-08 1.0516811499e-07 1.210984053e-08 9.9409662208e-09
          6.3669457885e-09 6.228191047e-09 7.3759626296e-08 6.9317812268e-08 7.8730108433e-08 7.6730231502e-08
          2.6470504051e-08 4.8917704349e-08 7.4264520867e-08 1.1443584577e-07 1.3005302516e-07 2.7149734146e-07
          3.2479602209e-07 3.8259123276e-07 4.4612353122e-07 5.1599084549e-07 5.9361020054e-07 6.2658724611e-07
          1.0643118086e-06 3.5585857772e-07 2.9142861224e-07 2.3413790584e-07 1.7522713625e-07 1.2198179133e-07
          7.246325795e-08 4.5795944935e-08 7.2474771032e-08 8.8720294823e-08 9.6919221568e-08 9.4521792913e-08
          9.1804340833e-08 8.938398786e-08 3.7470687889e-08 2.3271441022e-08 9.5874398896e-08 1.7841945597e-07
          2.7174954394e-07 3.5781097475e-07 2.6117329988e-06 5.9577308542e-07 5.5396049792e-07 3.8939131319e-07
          3.2105802938e-07 1.7036993016e-07 3.1076542325e-08 5.0384456422e-08 7.2091487477e-08 9.6963900464e-08
          1.1442286375e-07 2.3111829576e-07 2.7694930154e-07 3.2850063041e-07 3.8431033192e-07 4.4871175162e-07
          5.2180445703e-07 5.8313358543e-07 1.0688255244e-06 4.1855164135e-07 3.1899004083e-07 2.577230156e-07
          1.892988597e-07 1.2634117907e-07 1.9202366142e-08 2.9736334211e-08 4.4247900163e-08 5.7834687542e-08
          7.2043622699e-08 8.6267690162e-08 1.5610572519e-07 2.0515919041e-07 2.489025702e-07 2.9801579005e-07
          3.5912702278e-07 4.313927943e-07 5.0193556317e-07 7.0241386992e-07 6.2601242257e-07 3.6957394656e-07
          3.3146297485e-07 2.5847746266e-07 1.9574573296e-07 1.1342431849e-07 1.7218486722e-08 1.9575677167e-08
          2.0981693011e-08 2.3958935431e-08 3.5249308118e-08 5.9550218519e-08 9.8173288844e-08 1.4286740292e-07