<VTKFile type="UnstructuredGrid" version="0.1" byte_order="LittleEndian">
  <UnstructuredGrid>
    <Piece NumberOfPoints="126" NumberOfCells="200">
      <PointData Scalars="Phase1::Pressure" Vectors="Phase1::DarcyVelocity">
        <DataArray type="Float64" Name="Phase1::Pressure" format="ascii" RangeMin="-4.674751482" RangeMax="5.3523844012">
          5.3252485118 5.3523844012 -4.6476155942 -4.674751482 5.3284907615 5.3380635397
          5.3470331448 5.3515785051 -4.6484214897 -4.6529668457 -4.6619364467 -4.6715092289
          4.7750459327 4.2244359775 3.6734167536 3.1219917589 2.5701800999 2.0180346401
          1.5171463737 1.0162909444 0.51501451148 0.013209936598 -0.48927051782 -0.99264006835
          -1.4972090225 -1.9468238852 -2.3968097191 -2.846979667 -3.2972100003 -3.7474212937
          -4.1975650842 4.8024349113 4.2525787019 3.7027899955 3.153020329 2.6031902772
          2.0531761112 1.5027909739 1.0073599302 0.51072948178 0.01320993662 -0.4849854882
          -0.98370905587 -1.4828536279 -1.981965364 -2.4298199003 -2.8780082386 -3.3265832422
          -3.7755640171 -4.2249540613 4.7782940312 4.2276880405 3.6766295683 3.1250403859
          2.5727947721 2.0197048733 1.5198316782 1.0196879642 0.51926747466 0.018644240753
          -0.48212995084 -0.98301107927 -1.4839443606 -1.9438217278 -2.3953155052 -2.846476073
          -3.2973450049 -3.7479486832 -4.1983041869 4.7880836787 4.2381484414 3.6882779423
          3.1385086699 2.5889002983 2.0395561501 1.528819247 1.0275707291 0.52682164814
          0.026551091422 -0.47322157128 -0.97243645349 -1.470977435 -1.9469212946 -2.3990099739
          -2.8505526859 -3.3016593926 -3.752401572 -4.2028277952 4.7971721953 4.2475984185
          3.6983405977 3.1494473043 2.6009900162 2.0530786951 1.5290225681 1.0275635498
          0.52677843217 0.026551095189 -0.4731783475 -0.97242926551 -1.4711807463 -1.9604438307
          -2.4110996845 -2.8614913144 -3.3117220431 -3.7618515445 -4.2119163074 4.801695808
          4.252051312 3.7026549908 3.1535239235 2.6046844926 2.0561782715 1.5160556543
          1.0169889314 0.51787005737 0.018644247634 -0.48073251891 -0.98031202923 -1.4801683142
          -1.9802951174 -2.4272052187 -2.8749596049 -3.3233704223 -3.7723119499 -4.221705959
        </DataArray>
        <DataArray type="Float64" Name="Phase1::Saturation" format="ascii" RangeMin="0.00044064745326" RangeMax="0.99866017544">
          0.00079377081436 0.00044064745326 0.99866017544 0.99758624841 0.00065796317305 0.00065680279375
          0.00064855285079 0.00061184580184 0.99813944963 0.99802741442 0.99800183799 0.99799830266
          0.0018524111581 0.0027100659949 0.0035049453158 0.0042665593276 0.0050066946998 0.0094700316191
          0.010598848755 0.01188350541 0.013229938661 0.014592892105 0.01595670178 0.017315057821
          0.36384055891 0.98584443041 0.98789670587 0.98995501268 0.99202585804 0.99412100142
          0.99627139236 0.001225611919 0.0019314418548 0.0026183032398 0.0032964640657 0.0039699043684
          0.0046408597193 0.0074577824766 0.0091111255744 0.010541972215 0.011907972468 0.013255267636
          0.014599127599 0.015994182035 0.34809054962 0.98484531992 0.98707462024 0.98937239191
          0.99177495602 0.99437250367 0.0016059328696 0.0024345475257 0.0032175944514 0.0039731097426
          0.0047096015419 0.0078033438536 0.0096016407776 0.011109090303 0.012537908048 0.013943056348
          0.015338768303 0.016729686108 0.032607654822 0.98394826108 0.98703367524 0.98912102203
          0.99122157218 0.99335611446 0.99557611422 0.0015742309278 0.0023532397594 0.0030985363162
          0.0038277870992 0.0045472532765 0.0066407001094 0.0089405642083 0.010419074087 0.011888826603
          0.013338783108 0.014774966247 0.016204972716 0.022423065672 0.98017664908 0.98650025544
          0.98864048286 0.99079633343 0.99299540667 0.99530611068 0.0015423464767 0.0023001353193
          0.0030204092825 0.0037256166934 0.0044244980531 0.0057890767939 0.0086222906423 0.010017261382
          0.011428251866 0.012848018633 0.014267970733 0.015685676501 0.01847781318 0.97304877432
          0.98616716897 0.98835659424 0.99057469449 0.99284157096 0.99521120387 0.0014537355779
          0.0021816768154 0.0028805708804 0.0035673312344 0.0042487414227 0.0051123247791 0.0083966766897
          0.0097142723325 0.011072138972 0.012438273227 0.013806450296 0.015174771166 0.016571364742
          0.86817930861 0.98573011213 0.98795272977 0.99023616949 0.99260655858 0.99511877604
        </DataArray>
        <DataArray type="Float64" Name="Phase1::RelativePermeability" format="ascii" RangeMin="1.9417017807e-07" RangeMax="0.99732214602">
          6.3007210572e-07 1.9417017807e-07 0.99732214602 0.99517832301 4.329155371e-07 4.3138990987e-07
          4.2062080027e-07 3.7435528523e-07 0.99628236091 0.99605871994 0.99600766863 0.99600061212
          3.4314270988e-06 7.3444576968e-06 1.2284641667e-05 1.8203528496e-05 2.5066991817e-05 8.9681498866e-05
          0.00011233559494 0.00014121770083 0.00017503127698 0.0002129525 0.00025461633169 0.00029981122734
          0.13237995231 0.97188924097 0.97593990147 0.98001092713 0.98411530301 0.98827656546
          0.99255668724 1.5021245761e-06 3.7304676384e-06 6.8555118555e-06 1.0866675336e-05 1.5760140694e-05
          2.1537578935e-05 5.5618519469e-05 8.3012609232e-05 0.00011113317819 0.00014179980829 0.0001757021201
          0.00021313452666 0.00025581385896 0.12116703074 0.96992030417 0.97431630593 0.97885772988
          0.98361756338 0.98877667606 2.5790203816e-06 5.927021655e-06 1.0352914053e-05 1.5785601026e-05
          2.2180346684e-05 6.0892175298e-05 9.2191505623e-05 0.00012341188736 0.00015719913821 0.00019440882033
          0.00023527781306 0.00027988239726 0.001063259153 0.96815418048 0.97423547605 0.97836039622
          0.98252020515 0.98675637013 0.9911717992 2.4782030141e-06 5.5377373651e-06 9.6009273028e-06
          1.4651954077e-05 2.067751236e-05 4.4098897943e-05 7.9933688362e-05 0.00010855710484 0.00014134419801
          0.0001779231348 0.0002182996276 0.00026260114071 0.00050279387411 0.9607462634 0.97318275398
          0.97741000435 0.98167737434 0.98603987766 0.99063425396 2.3788326541e-06 5.290622487e-06
          9.1228722341e-06 1.3880219746e-05 1.9576183022e-05 3.3513410125e-05 7.4343895921e-05 0.0001003455256
          0.00013060494071 0.00016507158278 0.00020357498884 0.0002460404473 0.0003414295799 0.9468239172
          0.97252568515 0.97684875738 0.98123822536 0.98573438502 0.99044534031 2.1133471305e-06
          4.7597137269e-06 8.2976885971e-06 1.2725852136e-05 1.8051803677e-05 2.6135864647e-05 7.0504179432e-05
          9.4367086949e-05 0.00012259226142 0.00015471064087 0.00019061806977 0.00023027367994 0.00027461012941
          0.75373531189 0.97166385396 0.97605059627 0.98056767136 0.98526778014 0.99026137842
        </DataArray>
        <DataArray type="Float64" Name="Phase1::Density" format="ascii" RangeMin="0.9" RangeMax="0.9">
          0.9 0.9 0.9 0.9 0.9 0.9
          0.9 0.9 0.9 0.9 0.9 0.9
          0.9 0.9 0.9 0.9 0.9 0.9
          0.9 0.9 0.9 0.9 0.9 0.9
          0.9 0.9 0.9 0.9 0.9 0.9
          0.9 0.9 0.9 0.9 0.9 0.9
          0.9 0.9 0.9 0.9 0.9 0.9
          0.9 0.9 0.9 0.9 0.9 0.9
          0.9 0.9 0.9 0.9 0.9 0.9
          0.9 0.9 0.9 0.9 0.9 0.9
          0.9 0.9 0.9 0.9 0.9 0.9
          0.9 0.9 0.9 0.9 0.9 0.9
          0.9 0.9 0.9 0.9 0.9 0.9
          0.9 0.9 0.9 0.9 0.9 0.9
          0.9 0.9 0.9 0.9 0.9 0.9
          0.9 0.9 0.9 0.9 0.9 0.9
          0.9 0.9 0.9 0.9 0.9 0.9
          0.9 0.9 0.9 0.9 0.9 0.9
          0.9 0.9 0.9 0.9 0.9 0.9
          0.9 0.9 0.9 0.9 0.9 0.9
          0.9 0.9 0.9 0.9 0.9 0.9
        </DataArray>
        <DataArray type="Float64" Name="Phase1::DarcyVelocityOverPorosityCFL" format="ascii" RangeMin="1.8573841192e-06" RangeMax="0.1609148139">
          4.0239639662e-06 1.8573841192e-06 0.0015838433121 0.0095681609882 3.2261838935e-06 3.2139681286e-06
          3.1314112462e-06 2.7854072827e-06 0.0052537520474 0.013324672906 0.023747411631 0.023129943533
          1.4669851949e-05 3.153017905e-05 5.2967743051e-05 7.8842331026e-05 0.00010906894652 0.00019295399467
          0.00024184507498 0.0003062765305 0.00038284453469 0.00047055996681 0.00056984952639 0.00068214098159
          0.012601977818 0.020112379204 0.016219567773 0.015785930346 0.012922798567 0.0085390172068
          0.0032954339628 6.3812186749e-06 1.5827495687e-05 2.9055269157e-05 4.6022938958e-05 6.6739981949e-05
          9.1276856346e-05 0.00013142511868 0.00016408478388 0.00022379370789 0.00028956827649 0.00036273206595
          0.00044394041116 0.0005339434206 0.063511530195 0.095699905337 0.076905999006 0.058422260196
          0.040561801732 0.023268101085 1.1021706788e-05 2.5424980242e-05 4.4598287362e-05 6.8338714242e-05
          9.6599375743e-05 0.00014934047454 0.00019760124746 0.00026544844712 0.00033933319586 0.00042098446175
          0.00051102756861 0.00060970158808 0.00080793507634 0.063157156899 0.047727435257 0.035583796722
          0.024965101117 0.015674117338 0.0090058377529 1.0560581681e-05 2.359532117e-05 4.0898418473e-05
          6.2387314754e-05 8.7964568801e-05 0.00012822400495 0.00017486699838 0.00023533594019 0.00030397319369
          0.00037964012722 0.00046189285095 0.00055017081764 0.00066757199466 0.12136833488 0.060828623214
          0.044178075543 0.031097145419 0.021359447005 0.016253640924 1.0108796929e-05 2.2424222642e-05
          3.8554905731e-05 5.8459778358e-05 8.2097605425e-05 0.00011362446903 0.00016572287913 0.00021638099986
          0.00027895886892 0.00034962889168 0.00042774977619 0.00051270728268 0.00060726841154 0.1609148139
          0.038200641773 0.029634251239 0.025913994759 0.023793402687 0.023780724424 8.9731270609e-06
          2.0162660179e-05 3.5064263351e-05 5.3635703816e-05 7.5861837965e-05 0.00010282391058 0.000153869607
          0.00019564281207 0.00025496012935 0.00032277374369 0.00039899196206 0.00048377237523 0.00057794348205
          0.15522055405 0.10837739477 0.081524434281 0.059721360705 0.041415540481 0.025609527129
        </DataArray>
        <DataArray type="Float64" Name="Phase1::DivergenceTotalDarcyVelocity" format="ascii" RangeMin="-4.567749119e-08" RangeMax="6.2138074925e-08">
          3.6923576176e-09 5.3647418619e-09 5.364985717e-09 3.6924369243e-09 2.0927082701e-08 2.3006468996e-08
          1.3566397745e-08 7.4833943783e-09 6.1006911967e-09 1.2069159925e-08 1.8448278735e-08 1.0438465763e-08
          -1.8798473802e-08 -7.3081317907e-09 -1.0671625649e-08 8.8626469011e-09 1.2584289513e-08 -8.9660680742e-09
          2.3646572145e-08 6.6928427264e-09 -1.3019271982e-08 3.0905218715e-08 1.4878627291e-08 -1.0252037666e-08
          1.2388314819e-08 1.1844347211e-08 1.0869906456e-08 -9.6240101323e-09 -2.2586815104e-09 1.4729017059e-08
          2.5986418336e-09 -1.6847141791e-09 7.8697020038e-09 -2.2716359284e-09 -9.2020567164e-09 3.4890918009e-09
          1.0495142049e-08 1.3092986737e-08 -3.1769891963e-08 -1.0442162952e-08 -1.429764724e-08 -1.9437410968e-08
          6.7526091462e-10 -4.3412355255e-08 1.7732927487e-08 -8.3173255494e-09 -1.7430936294e-08 -3.7136092769e-09
          3.2964669089e-08 1.4510563915e-08 -3.2019213236e-08 -4.9230466058e-09 -9.7964193615e-09 -4.7076361906e-09
          -1.1729334431e-08 7.3632756813e-09 -4.567749119e-08 6.2138074925e-08 8.7585004306e-09 7.7254397942e-09
          1.1397775742e-09 9.9991805497e-09 8.4459700102e-09 -2.7569660241e-09 1.5500407143e-09 -8.2618603456e-10
          2.8295416195e-10 -5.0548830208e-09 -9.5548897852e-09 -3.2029364908e-08 -5.9016676962e-09 -3.4471179817e-09
          -2.5861497839e-09 -1.5605027773e-08 4.3735670061e-09 6.4785023063e-09 3.3300676019e-09 5.9083991897e-09
          5.8104393355e-09 4.7027647217e-09 1.748873355e-09 -7.2971401924e-09 1.1653934815e-08 -1.0864280989e-08
          8.1721667143e-10 -1.9458662667e-09 -7.2991125348e-09 -2.3504407112e-08 -7.0054873252e-09 5.6799796854e-09
          1.1644134745e-08 4.2986340616e-09 -3.2163599041e-09 2.2695218196e-09 1.0414021152e-08 -1.6284400107e-08
          -1.7759344173e-09 -5.2898184383e-09 -5.2612317879e-09 -4.3737522213e-09 -3.9077251347e-09 -1.2794297984e-09
          -6.7551400857e-09 6.638279543e-09 1.05857684e-09 -5.4800880305e-09 8.7418919595e-09 1.3432181073e-08
          1.2980779212e-08 3.4114809935e-09 -4.3354315797e-09 -2.506574245e-09 -2.5391311016e-09 1.009173622e-08
          -2.1982150757e-08 -1.6412984876e-08 -2.241121832e-08 -1.7084769944e-08 2.1675812508e-08 -3.1144732481e-09
          1.1361270882e-08 -5.1447766752e-09 4.8506833042e-09 1.1698265921e-08 1.8731580025e-08 1.8235053827e-08
        </DataArray>
        <DataArray type="Float64" Name="Phase1::Mobility" format="ascii" RangeMin="1.9581053111e-07" RangeMax="0.9959093898">
          6.1052019898e-07 1.9581053111e-07 0.9959093898 0.99412302336 4.3643861988e-07 4.3417942947e-07
          4.2053132835e-07 3.6333961998e-07 0.99508769076 0.99535331413 0.99521825069 0.99518147474
          2.6855011231e-06 6.2720983967e-06 1.0923714559e-05 1.6578850444e-05 2.3197717622e-05 7.0473765571e-05
          0.0001039841641 0.00013236421342 0.00016544314812 0.00020267851368 0.00024374515633 0.00028846381773
          0.33512930628 0.97158941935 0.97461367387 0.97871013723 0.98283778813 0.98702218959
          0.99132701261 1.0057950286e-06 2.9591568503e-06 5.8239864353e-06 9.5858136502e-06 1.4239905743e-05
          1.9788080992e-05 4.2812830001e-05 7.5411767307e-05 0.00010271957885 0.00013260450586 0.00016575035036
          0.00020245130825 0.00024377598901 0.3167519454 0.97109581147 0.97553836831 0.98013855727
          0.98498726506 0.99038645748 1.8201486305e-06 4.7958447408e-06 8.8830065803e-06 1.4002844055e-05
          2.0107613621e-05 4.5223308203e-05 8.3368124151e-05 0.00011345348202 0.00014615650301 0.00018234174158
          0.0002222351174 0.00026590443144 0.00070942320753 0.68154223767 0.97235915652 0.97683668494
          0.98100917236 0.98529375771 0.99032217098 1.7308982268e-06 4.4351287822e-06 8.1671977281e-06
          1.2902074091e-05 1.8622151949e-05 3.4596573104e-05 6.87400224e-05 9.9343794667e-05 0.000130858254
          0.00016619154471 0.00020533950376 0.00024838718235 0.00039867676765 0.60854579812 0.96937447
          0.97585414792 0.98014997613 0.98453097896 0.99038652259 1.6420512985e-06 4.2018647007e-06
          7.7056256145e-06 1.2146272883e-05 1.753082558e-05 2.7798913183e-05 6.0719377097e-05 9.1496844332e-05
          0.00012049649846 0.00015370440792 0.00019096153912 0.00023218357382 0.00030213323414 0.58996360979
          0.96547903233 0.97710513492 0.98208491842 0.98635548859 0.99123435908 1.4128168815e-06
          3.7176673619e-06 6.933963782e-06 1.1051584803e-05 1.6074090341e-05 2.2944929901e-05 5.3644079107e-05
          8.530889876e-05 0.00011241920899 0.00014343392011 0.00017827330086 0.00021690984502 0.00026002737916
          0.52791282832 0.97150980691 0.97728393454 0.98186558732 0.98666725813 0.99107687164
        </DataArray>
        <DataArray type="Float64" Name="Phase1::TotalMobility" format="ascii" RangeMin="0.56038244423" RangeMax="0.99591040107">
          0.99412627973 0.99591032169 0.99591040107 0.99412617749 0.99518379459 0.99522044682
          0.99535544887 0.99508948514 0.99508956769 0.99535548755 0.99522049591 0.99518373177
          0.99040046987 0.98501967018 0.98019476908 0.97562346341 0.97121458261 0.61108015885
          0.83843431906 0.94789500619 0.94790594503 0.94787503261 0.9478689425 0.94795268036
          0.73950641969 0.9716924043 0.97468769052 0.97875989661 0.9828679788 0.98703750886
          0.99133221329 0.99133202499 0.98703753114 0.98286800845 0.97875993516 0.97468773024
          0.97169261285 0.73950669743 0.94795315623 0.94786929998 0.94787529389 0.94790607498
          0.94789520572 0.83843427569 0.6110799809 0.97121443186 0.97562331115 0.98019464107
          0.9850195349 0.99040030353 0.99108659437 0.98669223901 0.98191146632 0.97735602143
          0.97161307954 0.70621734556 0.80222107493 0.9483124995 0.94817432393 0.94810487693
          0.9480604421 0.94741944522 0.56038244423 0.68166664256 0.97244283936 0.97689412789
          0.98104515605 0.98531302041 0.99032948068 0.99124354952 0.98637865538 0.98212726101
          0.97717192799 0.96557538552 0.59026556062 0.65879847692 0.94792740661 0.94847211445
          0.94841294938 0.9483854157 0.94574996974 0.59513377917 0.60872005858 0.96946567697
          0.97591725163 0.9801899576 0.98455275276 0.99039502084 0.99039493684 0.98455267524
          0.98018985716 0.97591709548 0.96946551975 0.60871995202 0.59513383979 0.94574998619
          0.94838538619 0.94841292632 0.94847208626 0.94792735144 0.65879847506 0.59026568574
          0.96557533476 0.97717185193 0.98212715383 0.98637842567 0.99124331046 0.9903293974
          0.98531300112 0.98104507038 0.97689401219 0.97244273684 0.68166666052 0.56038265655
          0.94741978034 0.94806062334 0.94810497522 0.94817443422 0.94831256144 0.80222097031
          0.70621736735 0.97161295467 0.9773558781 0.98191130019 0.98669197862 0.99108626871
        </DataArray>
        <DataArray type="Float64" Name="Phase1::FractionalFlow" format="ascii" RangeMin="1.9661462166e-07" RangeMax="0.99999898458">
          6.141274116e-07 1.9661462166e-07 0.99999898458 0.99999682724 4.3855077047e-07 4.3626457922e-07
          4.2249362157e-07 3.6513260908e-07 0.9999981138 0.99999781644 0.999997744 0.99999773205
          2.7115305423e-06 6.3674854285e-06 1.1144432621e-05 1.6993082952e-05 2.3885264943e-05 0.00011532654849
          0.00012402183658 0.00013964016326 0.00017453540511 0.00021382408725 0.00025715069394 0.00030430191687
          0.45317971198 0.99989401487 0.99992406116 0.99994916079 0.99996928308 0.99998447954
          0.99999475384 1.0145894647e-06 2.9980185726e-06 5.925502087e-06 9.793835348e-06 1.4609710681e-05
          2.0364548141e-05 5.7893769116e-05 7.9552208684e-05 0.00010836892687 0.00013989657365 0.00017485946628
          0.00021357984198 0.00029075145909 0.51834777002 0.99987786385 0.9999129348 0.99994278299
          0.99996723939 0.99998601974 1.8365182628e-06 4.8605274788e-06 9.0466471622e-06 1.432727046e-05
          2.0695083305e-05 6.4035963556e-05 0.00010392163302 0.00011963723148 0.00015414518125 0.0001923223327
          0.00023441028392 0.00028066178373 0.0012659625847 0.99981749893 0.99991394574 0.9999411984
          0.99996332107 0.99998045017 0.99999261892 1.7461886412e-06 4.4963754619e-06 8.315824285e-06
          1.3203484178e-05 1.9286067384e-05 5.8611878131e-05 0.0001043415017 0.00010480105752 0.00013796742361
          0.0001752312058 0.00021651482653 0.00026263514702 0.00066989436931 0.99971372643 0.99990592037
          0.99993533908 0.99995921049 0.99997788458 0.99999141933 1.6579762653e-06 4.2677906488e-06
          7.8613602846e-06 1.2446008927e-05 1.8082979975e-05 4.5667819974e-05 0.00010202642337 9.6745276942e-05
          0.0001270543602 0.00016206485978 0.00020133596116 0.00024493815213 0.00045861252807 0.99948823731
          0.99990026419 0.99993172438 0.99995699599 0.99997674617 0.99999096954 1.4266130897e-06
          3.7730826221e-06 7.0679360117e-06 1.1312982438e-05 1.6529600903e-05 3.3660044169e-05 9.5727586284e-05
          9.0043400539e-05 0.00011857808058 0.00015128485121 0.00018801740949 0.0002287324389 0.00032413435796
          0.74752173018 0.99989383863 0.99992638959 0.99995344501 0.99997494609 0.99999051842
        </DataArray>
        <DataArray type="Float64" Name="Phase1::SumSaturation" format="ascii" RangeMin="0.99999985007" RangeMax="1.0000002358">
          0.99999998423 0.9999999842 0.99999998424 0.99999998424 0.99999997337 0.99999995882
          0.99999997755 0.9999999716 0.99999998794 0.99999998585 0.99999997528 0.99999998358
          1.0000000717 1.0000000468 1.0000000174 1.0000000234 1.0000000548 1.0000000364
          0.9999999459 0.9999999135 0.99999996544 0.99999992271 0.99999985007 0.99999988037
          0.99999987115 0.99999996926 0.99999999328 0.99999996445 0.99999995731 0.99999999461
          0.99999998681 0.99999985118 1.0000000012 0.99999998893 1.0000000154 1.000000014
          1.0000001124 1.0000001083 1.0000001467 1.0000000574 1.0000001097 1.0000000205
          1.0000000293 1.0000000261 1.0000000007 0.99999997317 0.99999993782 0.99999995703
          0.99999998817 1.0000000131 1.0000001114 1.0000000854 1.0000000596 1.0000000337
          1.0000000285 0.99999996274 1.0000000607 0.99999991565 0.99999998573 0.99999994696
          0.99999994808 0.99999995494 0.99999993744 0.99999998466 1.0000000385 1.000000014
          1.0000000101 1.0000000138 1.0000000728 1.0000002358 1.0000000584 1.0000000284
          1.0000000169 1.0000000163 0.99999999122 0.99999994113 1.0000000545 1.0000000105
          1.0000000236 1.0000000165 1.0000000022 1.0000000386 0.99999999484 1.0000000632
          1.0000000305 1.0000000324 1.000000031 1.0000000792 0.99999999816 0.99999999109
          0.99999998947 0.99999996064 0.99999993283 0.99999991424 1.0000000672 0.99999996043
          0.99999998636 0.99999999487 0.99999999378 0.99999999482 0.99999995495 1.0000000837
          0.99999986233 0.99999997178 0.99999995245 0.99999994159 0.99999995358 0.99999998915
          1.0000000181 0.99999995083 0.99999995477 0.99999994833 1.000000017 0.99999992382
          1.0000001872 1.0000000794 1.000000033 1.0000000413 1.0000000144 1.0000000103
          0.99999992908 0.99999997812 0.99999996651 0.99999997288 0.99999997273 0.99999987941
        </DataArray>
        <DataArray type="Float64" Name="Phase1::AveragePressure" format="ascii" RangeMin="-4.674751482" RangeMax="5.3523844012">
          5.3252485118 5.3523844012 -4.6476155942 -4.674751482 5.3284907615 5.3380635397
          5.3470331448 5.3515785051 -4.6484214897 -4.6529668457 -4.6619364467 -4.6715092289
          4.7750459327 4.2244359775 3.6734167536 3.1219917589 2.5701800999 2.0180346401
          1.5171463737 1.0162909444 0.51501451148 0.013209936598 -0.48927051782 -0.99264006835
          -1.4972090225 -1.9468238852 -2.3968097191 -2.846979667 -3.2972100003 -3.7474212937
          -4.1975650842 4.8024349113 4.2525787019 3.7027899955 3.153020329 2.6031902772
          2.0531761112 1.5027909739 1.0073599302 0.51072948178 0.01320993662 -0.4849854882
          -0.98370905587 -1.4828536279 -1.981965364 -2.4298199003 -2.8780082386 -3.3265832422
          -3.7755640171 -4.2249540613 4.7782940312 4.2276880405 3.6766295683 3.1250403859
          2.5727947721 2.0197048733 1.5198316782 1.0196879642 0.51926747466 0.018644240753
          -0.48212995084 -0.98301107927 -1.4839443606 -1.9438217278 -2.3953155052 -2.846476073
          -3.2973450049 -3.7479486832 -4.1983041869 4.7880836787 4.2381484414 3.6882779423
          3.1385086699 2.5889002983 2.0395561501 1.528819247 1.0275707291 0.52682164814
          0.026551091422 -0.47322157128 -0.97243645349 -1.470977435 -1.9469212946 -2.3990099739
          -2.8505526859 -3.3016593926 -3.752401572 -4.2028277952 4.7971721953 4.2475984185
          3.6983405977 3.1494473043 2.6009900162 2.0530786951 1.5290225681 1.0275635498
          0.52677843217 0.026551095189 -0.4731783475 -0.97242926551 -1.4711807463 -1.9604438307
          -2.4110996845 -2.8614913144 -3.3117220431 -3.7618515445 -4.2119163074 4.801695808
          4.252051312 3.7026549908 3.1535239235 2.6046844926 2.0561782715 1.5160556543
          1.0169889314 0.51787005737 0.018644247634 -0.48073251891 -0.98031202923 -1.4801683142
          -1.9802951174 -2.4272052187 -2.8749596049 -3.3233704223 -3.7723119499 -4.221705959
        </DataArray>
        <DataArray type="Float64" Name="Phase1::AverageDensity" format="ascii" RangeMin="0.90017803144" RangeMax="1.099821937">
          1.099679232 1.099821937 0.90017803144 0.90032073648 1.0997340063 1.0997344607
          1.0997378629 1.0997527303 0.90024722756 0.90026209969 0.90026547176 0.90026594963
          1.0992520868 1.0989065417 1.0985867681 1.0982808381 1.0979839254 1.0338620497
          1.0005394792 1.0002714757 1.0000024983 0.99973143074 0.99945837711 0.99917948714
          0.96436159346 0.90187961219 0.90160731313 0.90133410958 0.90105920183 0.90078103866
          0.90049540876 1.0995044157 1.0992189578 1.0989407476 1.0986658753 1.0983926962
          1.0981204838 1.035638366 1.00082054 1.0005415304 1.0002686017 0.99999748758
          0.99972846707 0.9994604928 0.96613794889 0.90201611065 0.90171913173 0.90141321237
          0.90109349917 0.90074800389 1.099351419 1.0990172978 1.0987019258 1.0983980024
          1.0981020846 1.0860375279 1.0006970331 1.0004064837 1.00012684 0.99984946865
          0.99957328515 0.99929841357 0.99757883966 0.902116391 0.90172154511 0.90144464495
          0.90116590997 0.90088257007 0.90058783491 1.0993639613 1.0990489032 1.0987476518
          1.0984529021 1.0981620233 1.0966407887 1.0009536658 1.0005267147 1.0002379249
          0.99995094712 0.99966534506 0.99938123106 0.99861996108 0.90256123758 0.90179248744
          0.90150854385 0.90122243996 0.90093050382 0.90062370274 1.0993763665 1.0990695142
          1.0987775776 1.0984914403 1.0982074955 1.0974386631 1.0013801443 1.0006187316
          1.0003346578 1.0000490713 0.99976207936 0.99947333458 0.99904623006 0.90335927624
          0.90183787076 0.90154709106 0.90125233663 0.90095110847 0.90063625628 1.0994122186
          1.0991174623 1.098834045 1.0985553179 1.0982784327 1.0978836138 1.0024210203
          1.0007017286 1.0004267424 1.0001505113 0.9998731871 0.99959344631 0.99930303789
          0.91396233257 0.90189792707 0.90160200451 0.90129811538 0.90098277162 0.90064859509
        </DataArray>
        <DataArray type="Float64" Name="Phase1::RegressionSaturation" format="ascii" RangeMin="0.00044066462382" RangeMax="0.9986600782">
          0.0007937943886 0.00044066462382 0.9986600782 0.99758611303 0.00065798315312 0.00065682322491
          0.00064857399372 0.00061186724588 0.99813930287 0.99802726575 0.99800170108 0.99799818912
          0.001852449786 0.0027101145693 0.0035050009808 0.0042666198623 0.0050067581101 0.0094701216823
          0.010598909958 0.011883530261 0.013229920929 0.014592827039 0.015956585133 0.017314884904
          0.36384439482 0.98584368253 0.98789607159 0.98995445656 0.99202540917 0.99412064203
          0.99627115611 0.0012256497154 0.0019314956247 0.0026183701981 0.0032965418063 0.0039699906197
          0.0046409522387 0.0074579002078 0.0091112431092 0.010542073304 0.011908044817 0.013255300985
          0.014599113033 0.015994110114 0.34809743338 0.98484466452 0.98707409111 0.98937195627
          0.99177454403 0.99437231772 0.0016059697839 0.0024345960141 0.0032176513883 0.0039731727064
          0.0047096684525 0.0078034224963 0.0096017082504 0.011109130449 0.012537910736 0.013943014567
          0.015338676427 0.01672953867 0.032607451048 0.98394748908 0.98703306565 0.98912044416
          0.99122108602 0.99335573286 0.99557592821 0.0015742704565 0.002353292778 0.0030985994923
          0.0038278577846 0.0045473292003 0.0066407703569 0.0089406518239 0.01041913708 0.011888855435
          0.013338769714 0.014774903782 0.016204854751 0.022422906359 0.98017577255 0.98649962853
          0.988639912 0.99079586255 0.9929950286 0.99530591605 0.001542388598 0.0023001922872
          0.0030204777472 0.0037256939612 0.0044245817094 0.0057891640653 0.0086224010143 0.010017353373
          0.0114283135 0.012848040467 0.014267944938 0.01568559611 0.01847770352 0.97304794379
          0.98616650747 0.98835602181 0.99057420726 0.99284120358 0.99521096376 0.0014537779629
          0.0021817346176 0.0028806410102 0.0035674111563 0.0042488287883 0.0051124155001 0.0083968074542
          0.0097143866022 0.011072227307 0.012438326009 0.013806458812 0.015174727624 0.016571261575
          0.86818651662 0.98572949148 0.98795222149 0.99023573414 0.99260622097 0.99511852506
        </DataArray>
        <DataArray type="Float64" Name="Phase1::RegressionSaturationError" format="ascii" RangeMin="2.6884634744e-09" RangeMax="7.2080131395e-06">
          2.3574243558e-08 1.7170555524e-08 9.7243437636e-08 1.3537863242e-07 1.9980065836e-08 2.0431162258e-08
          2.1142929035e-08 2.1444042729e-08 1.4675939652e-07 1.4867395848e-07 1.3690805456e-07 1.1354474783e-07
          3.8627852618e-08 4.8574386116e-08 5.5664966141e-08 6.0534725004e-08 6.3410335926e-08 9.0063226934e-08
          6.1202793937e-08 2.4850777512e-08 1.7732342688e-08 6.5066256005e-08 1.1664686697e-07 1.7291697173e-07
          3.8359080116e-06 7.4788189586e-07 6.342787835e-07 5.5611879379e-07 4.4886667483e-07 3.593867286e-07
          2.3625108525e-07 3.779635448e-08 5.3769909771e-08 6.6958306993e-08 7.7740623639e-08 8.6251302393e-08
          9.2519355092e-08 1.1773117886e-07 1.1753480185e-07 1.0108851893e-07 7.2349247244e-08 3.3348992772e-08
          1.4566114028e-08 7.1920590278e-08 6.8837552655e-06 6.554007983e-07 5.2913257098e-07 4.3564406826e-07
          4.1198713785e-07 1.8595220308e-07 3.6914333213e-08 4.8488379657e-08 5.6936942848e-08 6.296384105e-08
          6.6910585629e-08 7.864265468e-08 6.7472776354e-08 4.0145945443e-08 2.6884634744e-09 4.1781136497e-08
          9.1876236423e-08 1.4743763379e-07 2.0377443856e-07 7.7199797976e-07 6.0958833747e-07 5.7786911722e-07
          4.8616000003e-07 3.8159972715e-07 1.860081067e-07 3.9528678803e-08 5.3018618579e-08 6.31761003e-08
          7.0685356687e-08 7.5923844658e-08 7.0247470712e-08 8.7615616507e-08 6.2992657465e-08 2.88315752e-08
          1.3393838988e-08 6.2465021091e-08 1.1796452379e-07 1.5931263498e-07 8.7652712388e-07 6.2690713076e-07
          5.7085915828e-07 4.7088323907e-07 3.7806728981e-07 1.9463204037e-07 4.2121323249e-08 5.6967930259e-08
          6.8464656264e-08 7.7267769884e-08 8.3656302476e-08 8.727142553e-08 1.1037195559e-07 9.1990762117e-08