<VTKFile type="UnstructuredGrid" version="0.1" byte_order="LittleEndian">
  <UnstructuredGrid>
    <Piece NumberOfPoints="21" NumberOfCells="20">
      <PointData Scalars="Phase1::Pressure" Vectors="Phase1::DarcyVelocity">
        <DataArray type="Float64" Name="Phase1::Pressure" format="ascii" RangeMin="-4.8305426757" RangeMax="5.1694573737">
          5.1694573737 4.619457512 4.0694581927 3.5194597343 2.969462436 2.4194666254
          1.8694730549 1.367713473 0.86770452083 0.36769915077 -0.13230263935 -0.63230084956
          -1.1322954797 -1.6322865278 -2.1305269935 -2.5805334234 -3.030537613 -3.4805403149
          -3.9305418567 -4.3805425376 -4.8305426757
        </DataArray>
        <DataArray type="Float64" Name="Phase1::Saturation" format="ascii" RangeMin="0.00063860722279" RangeMax="0.99806267559">
          0.00063860722279 0.0012462542194 0.0019640785332 0.0026286666369 0.0033579470816 0.003883112893
          0.0066747551327 0.0081680532274 0.0094933374162 0.010812357712 0.012128973944 0.013439753956
          0.014759230401 0.0160495794 0.93572792286 0.98821920163 0.98981202782 0.99202442764
          0.99404090235 0.99621877573 0.99806267559
        </DataArray>
        <DataArray type="Float64" Name="Phase1::RelativePermeability" format="ascii" RangeMin="4.07819185e-07" RangeMax="0.9961291044">
          4.07819185e-07 1.5531495794e-06 3.8576044845e-06 6.9098882878e-06 1.1275808603e-05 1.507856574e-05
          4.4552356082e-05 6.6717093525e-05 9.0123455297e-05 0.0001169070793 0.00014711200894 0.0001806269864
          0.00021783488204 0.00025758899892 0.87558674562 0.97657719048 0.97972785043 0.98411246504
          0.98811731554 0.99245184912 0.9961291044
        </DataArray>
        <DataArray type="Float64" Name="Phase1::Density" format="ascii" RangeMin="0.9" RangeMax="0.9">
          0.9 0.9 0.9 0.9 0.9 0.9
          0.9 0.9 0.9 0.9 0.9 0.9
          0.9 0.9 0.9 0.9 0.9 0.9
          0.9 0.9 0.9
        </DataArray>
        <DataArray type="Float64" Name="Phase1::DarcyVelocityOverPorosityCFL" format="ascii" RangeMin="0" RangeMax="0.004898228028">
          2.9742125112e-05 7.2949325205e-05 0.00016446945378 0.00028691581427 0.00044330536675 0.00062416425709
          0.00093492725878 0.0013153412029 0.0017575755035 0.0022616033744 0.0028276506556 0.0034557227365
          0.0041463988459 0.004898228028 0.0019171902273 0.0013617451528 0.00088142824373 0.00050529165585
          0.00022411641876 4.5659586684e-05 0
        </DataArray>
        <DataArray type="Float64" Name="Phase1::DivergenceTotalDarcyVelocity" format="ascii" RangeMin="-1.2343098991e-07" RangeMax="1.3158602188e-07">
          -1.2343098991e-07 1.3158602188e-07 -1.8519841923e-08 -1.9883420581e-08 2.4729223019e-08 2.229932143e-08
          -1.4511154376e-08 2.0037011745e-08 -5.9439281605e-08 2.2649441793e-08 2.812504215e-08 -3.1376170848e-08
          -1.6841539208e-08 2.2717333923e-08 1.4634020293e-08 -4.295174797e-08 6.2392202426e-09 -2.4445447439e-09
          -2.5328972921e-08 -1.4557800355e-08 2.9106666015e-08
        </DataArray>
        <DataArray type="Float64" Name="Phase1::Mobility" format="ascii" RangeMin="4.4669085084e-07" RangeMax="0.99450242036">
          4.4669085084e-07 1.3189622575e-06 3.5657843456e-06 6.7794074923e-06 1.0967421703e-05 1.6032965921e-05
          3.6503018211e-05 6.6630783922e-05 9.2290136377e-05 0.00012071817093 0.00015286931297 0.00018875131013
          0.00022838253238 0.00027706718518 0.44796675824 0.93596595353 0.97811327619 0.98216820072
          0.98655240475 0.99087479392 0.99450242036
        </DataArray>
        <DataArray type="Float64" Name="Phase1::TotalMobility" format="ascii" RangeMin="0.45142500506" RangeMax="0.99450475323">
          0.99450475323 0.99088139558 0.98657078886 0.98220323743 0.97816960614 0.93604835543
          0.45142506938 0.47869797323 0.95022892103 0.95018423528 0.950181678 0.95018427516
          0.95022882594 0.47869798181 0.45142500506 0.93604841866 0.97816969103 0.98220307524
          0.98657074843 0.99088157882 0.9945047174
        </DataArray>
        <DataArray type="Float64" Name="Phase1::FractionalFlow" format="ascii" RangeMin="4.4915909089e-07" RangeMax="0.99999769026">
          4.4915909089e-07 1.3311000322e-06 3.6143218366e-06 6.9022451097e-06 1.1212188187e-05 1.7128352214e-05
          8.0861743591e-05 0.00013919169842 9.7124108027e-05 0.00012704712039 0.00016088429877 0.00019864705728
          0.00024034477396 0.00057879330122 0.99233926613 0.99991190079 0.99994232612 0.99996449358
          0.99998140662 0.99999315267 0.99999769026
        </DataArray>
        <DataArray type="Float64" Name="Phase1::SumSaturation" format="ascii" RangeMin="0.99999970861" RangeMax="1.0000002393">
          1.0000002393 0.99999970861 1.0000000377 1.0000001217 0.99999993271 0.9999999113
          1.0000000465 0.99999994038 1.000000181 0.99999991588 0.99999992078 1.0000000952
          1.0000000522 0.99999992916 0.99999996002 1.0000001638 0.99999992459 0.99999995749
          1.0000000639 1.0000000376 0.99999995953
        </DataArray>
        <DataArray type="Float64" Name="Phase1::AveragePressure" format="ascii" RangeMin="-4.8305426757" RangeMax="5.1694573737">
          5.1694573737 4.619457512 4.0694581927 3.5194597343 2.969462436 2.4194666254
          1.8694730549 1.367713473 0.86770452083 0.36769915077 -0.13230263935 -0.63230084956
          -1.1322954797 -1.6322865278 -2.1305269935 -2.5805334234 -3.030537613 -3.4805403149
          -3.9305418567 -4.3805425376 -4.8305426757
        </DataArray>
        <DataArray type="Float64" Name="Phase1::AverageDensity" format="ascii" RangeMin="0.90025755269" RangeMax="1.0997426741">
          1.0997426741 1.0994969279 1.0992077175 1.0989397143 1.0986453417 1.098433495
          1.0929053923 1.0007880936 1.0005267702 1.0002626555 0.99999992075 0.99973735559
          0.99947346283 0.99921177639 0.90709464338 0.90156655493 0.9013545165 0.90106038138
          0.90079238156 0.90050278547 0.90025755269
        </DataArray>
        <DataArray type="Float64" Name="Phase1::Time" format="ascii" RangeMin="10" RangeMax="10">
          10 10 10 10 10 10
          10 10 10 10 10 10
          10 10 10 10 10 10
          10 10 10
        </DataArray>
        <DataArray type="Float64" Name="Phase2::Pressure" format="ascii" RangeMin="-4.8305426757" RangeMax="5.1694573737">
          5.1694573737 4.619457512 4.0694581927 3.5194597343 2.969462436 2.4194666254
          1.8694730549 1.367713473 0.86770452083 0.36769915077 -0.13230263935 -0.63230084956
          -1.1322954797 -1.6322865278 -2.1305269935 -2.5805334234 -3.030537613 -3.4805403149
          -3.9305418567 -4.3805425376 -4.8305426757
        </DataArray>
        <DataArray type="Float64" Name="Phase2::Saturation" format="ascii" RangeMin="0.0012986766097" RangeMax="0.97578230208">
          0.0012986766097 0.0025350074372 0.0039950826526 0.0053468626261 0.0068299489153 0.0078978483819
          0.057597078408 0.97578230208 0.97574761405 0.97574780455 0.9757419732 0.97574798387
          0.97574748483 0.97578229813 0.057597280723 0.0078978494462 0.0068299498206 0.0053468633171
          0.0039950831491 0.0025350077333 0.0012986767494
        </DataArray>
        <DataArray type="Float64" Name="Phase2::RelativePermeability" format="ascii" RangeMin="1.6865609365e-06" RangeMax="0.95215110106">
          1.6865609365e-06 6.4262627066e-06 1.5960685401e-05 2.8588939943e-05 4.6648202185e-05 6.2376009063e-05
          0.0033174234411 0.95215110106 0.95208340633 0.95208377808 0.95207239826 0.95208412802
          0.95208315415 0.95215109335 0.0033174467467 6.2376025875e-05 4.6648214552e-05 2.8588947332e-05
          1.5960689368e-05 6.426264208e-06 1.6865612994e-06
        </DataArray>
        <DataArray type="Float64" Name="Phase2::Density" format="ascii" RangeMin="1" RangeMax="1">
          1 1 1 1 1 1
          1 1 1 1 1 1
          1 1 1 1 1 1
          1 1 1
        </DataArray>
        <DataArray type="Float64" Name="Phase2::DarcyVelocityOverPorosityCFL" format="ascii" RangeMin="0" RangeMax="0.0039633524673">
          6.160126193e-05 0.00015116705918 0.00034080104311 0.00059448917425 0.00091842164467 0.0012929719922
          0.0039633524673 0.0028311278732 0.0016981675024 0.00056608642735 0 0.00056598469988
          0.0016981107434 0.0028310353215 0.0039632600929 0.0012929723484 0.00091842189793 0.00059448933553
          0.00034080113209 0.00015116709656 6.1601276103e-05
        </DataArray>
        <DataArray type="Float64" Name="Phase2::Mobility" format="ascii" RangeMin="1.850355888e-06" RangeMax="0.94990824836">
          1.850355888e-06 5.4659273329e-06 1.4777892203e-05 2.8095103963e-05 4.5447405691e-05 6.6432145637e-05
          0.0034217310761 0.47835427515 0.94990824836 0.94987476581 0.94987593938 0.94987480569
          0.94990815328 0.47835428385 0.0034217438076 6.6432164366e-05 4.5447418307e-05 2.8095111575e-05
          1.4777896055e-05 5.465928681e-06 1.8503563066e-06
        </DataArray>
        <DataArray type="Float64" Name="Phase2::FractionalFlow" format="ascii" RangeMin="1.8605802355e-06" RangeMax="0.99967823141">
          1.8605802355e-06 5.5162276306e-06 1.4979049015e-05 2.8604165505e-05 4.646168252e-05 7.0970848089e-05
          0.0075798428316 0.99928201476 0.99966253114 0.99967430582 0.99967823141 0.99967430583
          0.99966253112 0.99928201502 0.0075798721143 7.0970863304e-05 4.6461691386e-05 2.8604177978e-05
          1.4979053533e-05 5.516227971e-06 1.8605807235e-06
        </DataArray>
        <DataArray type="Float64" Name="Phase3::Pressure" format="ascii" RangeMin="-4.8305426757" RangeMax="5.1694573737">
          5.1694573737 4.619457512 4.0694581927 3.5194597343 2.969462436 2.4194666254
          1.8694730549 1.367713473 0.86770452083 0.36769915077 -0.13230263935 -0.63230084956
          -1.1322954797 -1.6322865278 -2.1305269935 -2.5805334234 -3.030537613 -3.4805403149
          -3.9305418567 -4.3805425376 -4.8305426757
        </DataArray>
        <DataArray type="Float64" Name="Phase3::Saturation" format="ascii" RangeMin="0.00063860719542" RangeMax="0.99806295542">
          0.99806295542 0.99621844696 0.99404087649 0.99202459246 0.98981203671 0.98821895003
          0.93572821296 0.016049585066 0.014759229493 0.013439753626 0.01212897364 0.010812357423
          0.0094933369452 0.0081680516273 0.006674756437 0.0038831127406 0.0033579469444 0.0026286665266
          0.0019640784504 0.0012462541654 0.00063860719542
        </DataArray>
        <DataArray type="Float64" Name="Phase3::RelativePermeability" format="ascii" RangeMin="4.0781915004e-07" RangeMax="0.99612966299">
          0.99612966299 0.99245119406 0.98811726414 0.98411279205 0.97972786801 0.97657669319
          0.87558728853 0.0002575891808 0.00021783485523 0.00018062697753 0.00014711200156 0.00011690707303
          9.0123446356e-05 6.6717067387e-05 4.4552373493e-05 1.5078564556e-05 1.1275807681e-05 6.9098877082e-06
          3.8576041592e-06 1.5531494447e-06 4.0781915004e-07
        </DataArray>
        <DataArray type="Float64" Name="Phase3::Density" format="ascii" RangeMin="1.1" RangeMax="1.1">
          1.1 1.1 1.1 1.1 1.1 1.1
          1.1 1.1 1.1 1.1 1.1 1.1
          1.1 1.1 1.1 1.1 1.1 1.1
          1.1 1.1 1.1
        </DataArray>
        <DataArray type="Float64" Name="Phase3::DarcyVelocityOverPorosityCFL" format="ascii" RangeMin="0" RangeMax="0.0048982264721">
          0 4.5723058814e-05 0.00022405823173 0.00050522775814 0.00088137879857 0.0013616802395
          0.0019170709179 0.0048982264721 0.0041463991456 0.0034557225462 0.0028276504911 0.0022616032368
          0.0017575753884 0.0013153409368 0.00093492643995 0.000624164204 0.00044330532835 0.00028691578881
          0.00016446943894 7.2949318484e-05 2.97421225e-05
        </DataArray>
        <DataArray type="Float64" Name="Phase3::Mobility" format="ascii" RangeMin="4.4669081077e-07" RangeMax="0.99450245618">
          0.99450245618 0.99087461069 0.98655244518 0.98216836292 0.97811319131 0.93596589032
          0.44796683528 0.00027706729703 0.00022838253677 0.00018875130039 0.00015286930488 0.00012071816397
          9.2290125346e-05 6.6630777363e-05 3.6503018654e-05 1.6032964598e-05 1.0967420764e-05 6.7794068985e-06
          3.5657840285e-06 1.3189621385e-06 4.4669081077e-07
        </DataArray>
        <DataArray type="Float64" Name="Phase3::FractionalFlow" format="ascii" RangeMin="4.4915906677e-07" RangeMax="0.99999769026">
          0.99999769026 0.99999315267 0.99998140663 0.99996449359 0.99994232613 0.9999119008
          0.99233929542 0.00057879354526 0.00024034475452 0.00019864705537 0.00016088429026 0.00012704710773
          9.7124106138e-05 0.00013919168222 8.0861756093e-05 1.7128349643e-05 1.1212186254e-05 6.9022456449e-06
          3.6143216633e-06 1.3310996659e-06 4.4915906677e-07
        </DataArray>
        <DataArray type="Float64" Name="Phase1::DarcyVelocity" NumberOfComponents="3" format="ascii" RangeMin="8.9338046613e-07" RangeMax="0.00027167840032">
          8.9338046613e-07 0 0 2.6379089812e-06 0 0
          7.1314776145e-06 0 0 1.355850598e-05 0 0
          2.1934052682e-05 0 0 3.2064168466e-05 0 0
          4.683128391e-05 0 0 6.7592543562e-05 0 0
          9.2302878468e-05 0 0 0.00012072627245 0 0
          0.00015286870459 0 0 0.00018873712046 0 0
          0.00022834908055 0 0 0.00027167840032 0 0
          0.00020471844278 0 0 9.8491173959e-05 0 0
          6.7379425212e-05 0 0 4.165366347e-05 0 0
          2.190962896e-05 0 0 8.1034093089e-06 0 0
          2.7469936296e-06 0 0
        </DataArray>
        <DataArray type="Float64" Name="Phase1::TotalDarcyVelocity" NumberOfComponents="3" format="ascii" RangeMin="2.0387579935e-10" RangeMax="7.0817798086e-09">
          -7.0817798086e-09 0 0 2.0387579935e-10 0 0
          3.0305302983e-09 0 0 2.0704487357e-09 0 0
          2.1915937966e-09 0 0 3.3673074079e-09 0 0
          3.5620115843e-09 0 0 3.7001580185e-09 0 0
          2.715101272e-09 0 0 1.7953552767e-09 0 0
          3.0647173752e-09 0 0 2.9834391578e-09 0 0
          1.7779964064e-09 0 0 1.9248912743e-09 0 0
          2.8586751296e-09 0 0 2.1507319377e-09 0 0
          1.2329187446e-09 0 0 1.327785632e-09 0 0
          6.3344769039e-10 0 0 -3.6372164151e-10 0 0
          3.2620463292e-09 0 0
        </DataArray>
        <DataArray type="Float64" Name="Phase1::BulkDarcyVelocity" NumberOfComponents="3" format="ascii" RangeMin="2.9816762026e-09" RangeMax="0.00019533871537">
          -2.7425110419e-06 0 0 -8.0557804794e-06 0 0
          -2.1702377327e-05 0 0 -4.1132226533e-05 0 0
          -6.6305531583e-05 0 0 -9.6676254016e-05 0 0
          -0.00018215100299 0 0 0.00019533871537 0 0
          0.00013025541538 0 0 6.5131932434e-05 0 0
          2.9816762026e-09 0 0 -6.5127299215e-05 0 0
          -0.00013025102133 0 0 -0.00019533329492 0 0
          0.00018215446812 0 0 9.6681747003e-05 0 0
          6.6308930918e-05 0 0 4.1135597001e-05 0 0
          2.1706023146e-05 0 0 8.055624988e-06 0 0
          2.7386982846e-06 0 0
        </DataArray>
        <DataArray type="Float64" Name="Phase2::DarcyVelocity" NumberOfComponents="3" format="ascii" RangeMin="3.0556435425e-09" RangeMax="0.00020408951919">
          1.8503507699e-06 0 0 5.4658629549e-06 0 0
          1.477751475e-05 0 0 2.8093823397e-05 0 0
          4.5444129078e-05 0 0 6.6424839203e-05 0 0
          0.00015788709038 0 0 0.00020408951919 0 0
          0.00013604892047 0 0 6.8012632709e-05 0 0
          3.0556435425e-09 0 0 -6.8007872163e-05 0 0
          -0.00013604443554 0 0 -0.00020408396446 0 0
          -0.00015788432638 0 0 -6.6424857509e-05 0 0
          -4.5444141529e-05 0 0 -2.8093830915e-05 0 0
          -1.4777518546e-05 0 0 -5.4658642904e-06 0 0
          -1.8503511956e-06 0 0
        </DataArray>
        <DataArray type="Float64" Name="Phase3::DarcyVelocity" NumberOfComponents="3" format="ascii" RangeMin="8.9338038769e-07" RangeMax="0.00027167836259">
          -2.7508130158e-06 0 0 -8.1035680603e-06 0 0
          -2.1905961835e-05 0 0 -4.1650258928e-05 0 0
          -6.7375990166e-05 0 0 -9.8485640361e-05 0 0
          -0.00020471481228 0 0 -0.00027167836259 0 0
          -0.00022834908384 0 0 -0.0001887371098 0 0
          -0.00015286869552 0 0 -0.00012072626486 0 0
          -9.2302867015e-05 0 0 -6.7592510972e-05 0 0
          -4.683125772e-05 0 0 -3.2064165718e-05 0 0
          -2.1934050764e-05 0 0 -1.3558504769e-05 0 0
          -7.1314769668e-06 0 0 -2.6379087401e-06 0 0
          -8.9338038769e-07 0 0
        </DataArray>
      </PointData>
      <CellData Scalars="Phase3::Viscosity" Vectors="Phase1::GravityDirection">
        <DataArray type="Float64" Name="Phase1::Viscosity" format="ascii" RangeMin="1" RangeMax="1">
          1 1 1 1 1 1
          1 1 1 1 1 1
          1 1 1 1 1 1
          1 1
        </DataArray>
        <DataArray type="Float64" Name="Phase1::Porosity" format="ascii" RangeMin="0.5" RangeMax="0.5">
          0.5 0.5 0.5 0.5 0.5 0.5
          0.5 0.5 0.5 0.5 0.5 0.5
          0.5 0.5 0.5 0.5 0.5 0.5
          0.5 0.5
        </DataArray>
        <DataArray type="Float64" Name="Phase1::AbsolutePermeability" format="ascii" RangeMin="1" RangeMax="1">
          1 1 1 1 1 1
          1 1 1 1 1 1
          1 1 1 1 1 1
          1 1
        </DataArray>
        <DataArray type="Float64" Name="Phase2::Viscosity" format="ascii" RangeMin="1" RangeMax="1">
          1 1 1 1 1 1
          1 1 1 1 1 1
          1 1 1 1 1 1
          1 1
        </DataArray>
        <DataArray type="Float64" Name="Phase3::Viscosity" format="ascii" RangeMin="1" RangeMax="1">
          1 1 1 1 1 1
          1 1 1 1 1 1
          1 1 1 1 1 1
          1 1
        </DataArray>
        <DataArray type="Float64" Name="Phase1::GravityDirection" NumberOfComponents="3" format="ascii" RangeMin="1" RangeMax="1">
          -1 0 0 -1 0 0
          -1 0 0 -1 0 0
          -1 0 0 -1 0 0
          -1 0 0 -1 0 0
          -1 0 0 -1 0 0
          -1 0 0 -1 0 0
          -1 0 0 -1 0 0
          -1 0 0 -1 0 0
          -1 0 0 -1 0 0
          -1 0 0 -1 0 0
        </DataArray>
      </CellData>
      <Points>
        <DataArray type="Float64" Name="Points" NumberOfComponents="3" format="ascii" RangeMin="0" RangeMax="1">
          0 0 0 0.05 0 0
          0.1 0 0 0.15 0 0
          0.2 0 0 0.25 0 0
          0.3 0 0 0.35 0 0
          0.4 0 0 0.45 0 0
          0.5 0 0 0.55 0 0
          0.6 0 0 0.65 0 0
          0.7 0 0 0.75 0 0
          0.8 0 0 0.85 0 0
          0.9 0 0 0.95 0 0
          1 0 0
        </DataArray>
      </Points>
      <Cells>
        <DataArray type="Int64" Name="connectivity" format="ascii" RangeMin="0" RangeMax="20">
          0 1 1 2 2 3
          3 4 4 5 5 6
          6 7 7 8 8 9
          9 10 10 11 11 12
          12 13 13 14 14 15
          15 16 16 17 17 18
          18 19 19 20
        </DataArray>
        <DataArray type="Int64" Name="offsets" format="ascii" RangeMin="2" RangeMax="40">
          2 4 6 8 10 12
          14 16 18 20 22 24
          26 28 30 32 34 36
          38 40
        </DataArray>
        <DataArray type="UInt8" Name="types" format="ascii" RangeMin="3" RangeMax="3">
          3 3 3 3 3 3
          3 3 3 3 3 3
          3 3 3 3 3 3
          3 3
        </DataArray>
      </Cells>
    </Piece>
  </UnstructuredGrid>
</VTKFile>
