<VTKFile type="UnstructuredGrid" version="0.1" byte_order="LittleEndian">
  <UnstructuredGrid>
    <Piece NumberOfPoints="756" NumberOfCells="3000">
      <PointData Scalars="Phase1::Pressure" Vectors="Phase1::DarcyVelocity">
        <DataArray type="Float64" Name="Phase1::Pressure" format="ascii" RangeMin="-4.6918413982" RangeMax="5.3285643133">
          5.3052397984 5.3224983437 5.3224290273 5.3262935383 -4.6702057472 -4.6819475317
          -4.6858021237 -4.6785471322 5.3064472554 5.3111599605 5.3172376143 5.3215590273
          5.3233795493 5.3258065489 5.3276469028 5.3280330042 5.3065273865 5.3113843722
          5.3180011245 5.3229136524 5.3248978459 5.3263618901 5.3271239074 5.3272206773
          -4.6708161133 -4.6731689027 -4.6781741059 -4.6812063306 -4.6838126829 -4.6848163041
          -4.68831923 -4.6884859972 -4.6890332022 -4.6899690194 -4.685709605 -4.6805822253
          -4.6786133684 -4.6762314187 -4.6723714584 -4.6706449744 4.7550841662 4.20471675
          3.6542127889 3.1037196389 2.553491153 2.0060916942 1.5016065395 0.9980758596
          0.49491675161 -0.0082179740242 -0.51153758459 -1.0151224288 -1.5188730085 -1.9691846909
          -2.4193926692 -2.8696234388 -3.3198544212 -3.7700485995 -4.2201728737 4.7723117866
          4.221752072 3.6706046584 3.1184545168 2.5645321774 2.0074360915 1.5055491606
          1.0043191003 0.50317616458 0.0022888523863 -0.49834348803 -0.99860727648 -1.4982172877
          -1.9747431987 -2.4274146853 -2.8792869934 -3.3305331576 -3.7813159863 -4.2317602132
          4.7761272203 4.2256719355 3.6748291307 3.1234145736 2.5711088543 2.0173706794
          1.5079368208 1.0046891609 0.50217069125 0.00017236942058 -0.50157915568 -1.0033979351
          -1.5056801841 -1.9733849183 -2.4279469205 -2.8812114642 -3.3334432953 -3.7848599407
          -4.2356170133 4.7722290493 4.2216360176 3.6704185052 3.1181235919 2.5638978095
          2.0061552489 1.5044521782 1.0030356684 0.5012513301 -0.0010348458998 -0.50424787426
          -1.0091901336 -1.5172818884 -1.9716087656 -2.4237917682 -2.8756210045 -3.3269812502
          -3.7778980121 -4.2284156104 5.3085820003 5.3146745779 5.3214360435 5.3248959939
          5.3146951785 5.3211331571 5.3261011953 5.3272973365 5.3212869482 5.3259589782
          5.3285372313 5.3285643133 5.3248647225 5.3272829247 5.3283361287 5.3283961191
          4.7561683655 4.2053907352 3.6540889697 3.1022262389 2.5497574324 1.9966455055
          1.4966822042 0.99604797164 0.49475636117 -0.0072494750517 -0.51012906559 -1.0141796485
          -1.519894398 -1.9692562748 -2.4193095467 -2.8696757913 -3.3201167677 -3.7704970816
          -4.2207424748 4.7608829327 4.2100499965 3.6585781256 3.1063204911 2.5530497175
          1.9984412832 1.4995820864 0.99984783595 0.49948435847 -0.0014179612173 -0.50292085196
          -1.0052679121 -1.5089564205 -1.9658482934 -2.4182557069 -2.8701370151 -3.3215255981
          -3.772468975 -4.2230084224 4.7670582667 4.2164459599 3.6652814203 3.1133330379
          2.5601978109 2.005201556 1.5046551724 1.0042166729 0.50380646204 0.003566083828
          -0.49629234848 -0.99555858609 -1.4938333565 -1.9689837592 -2.4227193499 -2.8750766628
          -3.3265565147 -3.7774591064 -4.2279640991 4.771543688 4.2213324192 3.6708941632
          3.1201671728 2.5690666464 2.0175111087 1.5062976451 1.0038416434 0.50196405
          0.00020421234491 -0.50186795464 -1.004774702 -1.5092561327 -1.9728863805 -2.4266086621
          -2.8787768799 -3.3300413961 -3.7807589261 -4.2311189553 4.7749560436 4.2250819799
          3.6752930594 3.1256205728 2.5761263045 2.0269408192 1.5060554584 1.0041031586
          0.50296998125 0.0023805417404 -0.49780664188 -0.99758427606 -1.4968488247 -1.98088264
          -2.4323549504 -2.8830903523 -3.3334656029 -3.7836599881 -4.2337614061 4.7763156005
          4.2261766579 3.6758777866 3.1252929676 2.5742123386 2.0223024404 1.5054103777
          1.0028837426 0.50153371571 0.00076938115305 -0.49976790791 -1.0003287193 -1.5012077936
          -1.9750234699 -2.4290239397 -2.881613441 -3.3332370148 -3.7841972974 -4.2346888935
          4.7770732556 4.2269013771 3.6765567492 3.125942284 2.5748966257 2.0231632136
          1.5082068856 1.0049596847 0.5027847818 0.0013279262605 -0.49954612256 -1.0000081223
          -1.5001250476 -1.9826771381 -2.4352454833 -2.8867122024 -3.3375341625 -3.7879802634
          -4.2382117236 4.7772169822 4.2271481558 3.6770284682 3.126886745 2.5767942365
          2.0269202011 1.5039444308 1.0012106541 0.49975940498 -0.00090288997321 -0.50112386108
          -1.0009900703 -1.5004482076 -1.9808677095 -2.4342579849 -2.8862385819 -3.3373888423
          -3.7880365119 -4.2383688 4.7732053875 4.2227042427 3.671743961 3.1200854254
          2.5673423308 2.0129312705 1.5055590802 1.0032456102 0.50127397886 -0.00067563296947
          -0.50292725976 -1.0058552447 -1.5099328867 -1.9720175533 -2.4252883836 -2.8774913179
          -3.3290348247 -3.7799929969 -4.230464773 4.7757425778 4.2255205142 3.6750798042
          3.1243071671 2.5730224685 2.0209586551 1.5065715195 1.0032240516 0.50113753067
          -0.00023318755076 -0.50121619577 -1.0019975126 -1.502635018 -1.9763862882 -2.4307725601
          -2.8832253856 -3.3345727276 -3.7852815629 -4.2356155334 4.777665902 4.2276724383
          3.6776594745 3.1276097736 2.5775004604 2.0273121819 1.5061679781 1.0022493656
          0.50029906848 -0.00057039635355 -0.5006055246 -0.99997478302 -1.4986203192 -1.9874148466
          -2.438914163 -2.8895935614 -3.3398440656 -3.7899032846 -4.2399161567 4.7781181873
          4.2283216323 3.6787109993 3.1294144087 2.580665438 2.0328887909 1.5033217135
          1.0004531729 0.49907292531 -0.0013463384862 -0.50127839281 -1.0008066907 -1.4998727384
          -1.9820055873 -2.4352407884 -2.8870772672 -3.3381068445 -3.7886637862 -4.2389386599
          4.7562508178 4.2054821769 3.6541980751 3.1023655879 2.5499463638 1.9969169546
          1.4968626222 0.99618017619 0.49485478892 -0.007176219236 -0.51007371334 -1.014131077
          -1.5198302243 -1.9691692239 -2.4191960115 -2.8695385213 -3.3199613843 -3.7703299974
          -4.2205701271 4.7611062356 4.2102772459 3.6588136648 3.1065690482 2.5533200598
          1.9987563376 1.4998948862 1.0001460623 0.4997413631 -0.0012407730916 -0.50287713448
          -1.0054282379 -1.509403425 -1.9655703914 -2.4177594594 -2.8695001216 -3.3208030987
          -3.771698604 -4.2222155316 4.7678580776 4.2173551477 3.6663726245 3.1146719882
          2.5618232476 2.0070800677 1.505983224 1.0054280071 0.50494738134 0.0046455892572
          -0.49536826966 -0.99503275752 -1.494229811 -1.9677301146 -2.4210700639 -2.8732411091
          -3.3246550238 -3.7755534783 -4.2260755544 4.773077534 4.2233858804 3.6739398216
          3.1249239348 2.5766757681 2.0298245554 1.5062274643 1.0044959516 0.50346388591
          0.0028971914032 -0.49734423753 -0.99722634433 -1.4965715794 -1.9715730897 -2.4242586501
          -2.8760693345 -3.327188652 -3.7779180992 -4.2283762736 -4.6714105918 -4.6741501188
          -4.6792120807 -4.6818056185 -4.6748471454 -4.6789759777 -4.6847522413 -4.6877655829
          -4.6811452445 -4.6851260954 -4.6900044784 -4.6918413982 -4.6844441962 -4.6863377819
          -4.6906310755 -4.6913063922 4.7583323039 4.2075669442 3.6562323133 3.1042288568
          2.5513948842 1.9974847296 1.4982986026 0.99842241393 0.49805447182 -0.0026629089718
          -0.50363356151 -1.0047751561 -1.5059793176 -1.9651698968 -2.4172617134 -2.8688452239
          -3.3200055325 -3.7707983215 -4.2212596362 4.7645555403 4.2141895106 3.6635517727
          3.1125969672 2.5612520861 2.0094112309 1.5055916471 1.0047631695 0.50422992383
          0.0040468419657 -0.49568698677 -0.99479583332 -1.4929628906 -1.9657563491 -2.4188938876
          -2.8710555385 -3.3225169135 -3.7734567494 -4.223981742 4.7715014158 4.2217074089
          3.6720967051 3.1227520223 2.5738183983 2.0255564126 1.5101663254 1.0079673309
          0.50682962674 0.0064645422344 -0.49319369466 -0.99215332178 -1.4903566813 -1.981102715
          -2.4299679291 -2.8794671115 -3.3292686925 -3.7792126048 -4.2292086224 4.7750423811
          4.2254989549 3.676353561 3.1277752244 2.5800491235 2.0336373552 1.4983388026
          0.99982984139 0.50081214522 0.0016288817631 -0.49751410241 -0.99634889561 -1.4945293152
          -1.9833951283 -2.4327034838 -2.8822514713 -3.3319944536 -3.7818557745 -4.231798219
          4.764590378 4.2142700293 3.6637189074 3.1129091343 2.5617958138 2.0103150702
          1.5056028349 1.004625661 0.50402669262 0.0038387909147 -0.49585024708 -0.99486465616
          -1.4928745463 -1.966458246 -2.4196222757 -2.8717807917 -3.3232328064 -3.774162294
          -4.2246805076 4.7712309238 4.2215396343 3.6721109274 3.1230390182 2.5744769412
          2.0266831979 1.5100133463 1.0078543049 0.5067505926 0.0064983752614 -0.49298369247
          -0.99168410216 -1.4895005228 -1.9737790404 -2.4258732304 -2.8772234371 -3.3280721818
          -3.7785965744 -4.2288825008 4.7762893293 4.2268339851 3.6778212014 3.1293423393
          2.5815360647 2.0346026555 1.5068020701 1.0049846733 0.5041728345 0.0040312684169
          -0.49561787784 -0.99486583723 -1.4937494171 -1.987948853 -2.4371006989 -2.8862734885
          -3.3356100422 -3.7851330758 -4.2348485647 4.7773987185 4.2277841154 3.6784549575
          3.1294726743 2.5809296498 2.0329620445 1.489092956 0.99300358702 0.49556502672
          -0.0027460031561 -0.50163614944 -1.0009730883 -1.5007431584 -2.0010539378 -2.4456160804
          -2.8921834987 -3.3400259606 -3.7887133801 -4.2380019281 4.771362263 4.2216049518
          3.6720718999 3.122874185 2.5742048737 2.0263998225 1.508618569 1.0063907845
          0.5052989985 0.0050153721587 -0.49459818417 -0.9935921957 -1.491903451 -1.9839854364
          -2.4328598397 -2.882088182 -3.3315940036 -3.7813028856 -4.2311623152 4.7761344607
          4.2267068651 3.6777105758 3.1292499571 2.581479966 2.0346239814 1.4997498196
          1.0002905946 0.50100886237 0.0018147960784 -0.4972261447 -0.99621920548 -1.4952040942
          -1.9923070877 -2.4393942458 -2.887541212 -3.33636305 -3.785639047 -4.2352471873
          4.778699887 4.2291698306 3.6799938169 3.1312093043 2.5828675213 2.0350300221
          1.4929697288 0.99524401324 0.49688148662 -0.0019102633966 -0.50101735499 -1.0004131723
          -1.5001052697 -1.9998461872 -2.4465732712 -2.8940504363 -3.3422128032 -3.7909642125
          -4.2402413183 4.7786178749 4.2288123402 3.679129672 3.1295374068 2.579973771
          2.03032353 1.4806164332 0.98653737446 0.49053160448 -0.0068174048168 -0.50513777979
          -1.0042359213 -1.5040678689 -2.0046994224 -2.4500794712 -2.8967796088 -3.344494517
          -3.7929988925 -4.2421436307 4.7750038443 4.2254435423 3.6762676801 3.127637278
          2.5798259244 2.0332813843 1.4966588845 0.99838755641 0.49948218406 0.00018040417509
          -0.49938029055 -0.99905459175 -1.4988332252 -1.9985116269 -2.4421983192 -2.8885517581
          -3.3364539308 -3.7852731371 -4.2346622613 4.7773842795 4.2276907386 3.6782303756
          3.1290134908 2.5800471683 2.0313187167 1.4841421473 0.99069002879 0.49474019422
          -0.0026293584016 -0.50085958868 -0.99947315683 -1.4980896741 -1.9825760069 -2.4347646165
          -2.8857418447 -3.3361366613 -3.786270642 -4.2363103375 4.7783879849 4.2285902989
          3.6789372203 3.129448433 2.5801594769 2.0311430529 1.5027839512 1.0002326046
          0.49913834854 -0.0012646440798 -0.50140836963 -1.0015332145 -1.5018251704 -2.0024650774
          -2.4477882074 -2.8947432125 -3.342774703 -3.7915469434 -4.2408664899 4.7784260092
          4.228541601 3.67873391 3.1289896259 2.5792786661 2.0295309122 1.4796734416
          0.98669128079 0.49097670623 -0.0063598664248 -0.5046886382 -1.003644426 -1.5030366333
          -2.0025793471 -2.4479795114 -2.8950784159 -3.3432554081 -3.7921434265 -4.2415318943
        </DataArray>
        <DataArray type="Float64" Name="Phase1::Saturation" format="ascii" RangeMin="0.00033171449105" RangeMax="0.99899869261">
          0.000867757018 0.00083642328823 0.00082876965778 0.00077607490525 0.9989895348 0.99826945923
          0.99899869261 0.99899100039 0.00079660410658 0.00078658752766 0.00075083414117 0.00068747685478
          0.0007411215911 0.00072952149957 0.00072031306652 0.00063881423448 0.00079638817158 0.00078515454751
          0.00073706585943 0.00052560672812 0.0006284106543 0.00072937177385 0.00072015341444 0.00063852212116
          0.99869632313 0.9986599876 0.99843158221 0.99899330881 0.99820008501 0.99858346824
          0.99839956141 0.99870663298 0.99870694129 0.99840880491 0.99866182657 0.99869813073
          0.9980343968 0.99865551015 0.99865963757 0.9986961272 0.0020010630729 0.0028768562027
          0.0036750790765 0.0044346063868 0.0052277052695 0.0099202177039 0.010884133436 0.012138021658
          0.013474168721 0.014834444553 0.016199755075 0.017675318481 0.62182046782 0.98650994798
          0.98856669013 0.99060867027 0.99263695711 0.99465887195 0.99670191117 0.0018779049761
          0.0026945129848 0.0034493818584 0.0041744280876 0.0048837277138 0.0085821208822 0.0099297687157
          0.011269304919 0.012529541369 0.013835626138 0.015474914428 0.016951717124 0.031454544283
          0.98129237773 0.98706403056 0.98923887758 0.99141404128 0.99360027564 0.99581376321
          0.0016964746833 0.0024472347119 0.0031568553338 0.0038472543228 0.0045267410023 0.0066792973279
          0.0089238485284 0.010358715265 0.011790117669 0.013213972356 0.014602844465 0.015963853676
          0.025748534964 0.98326174611 0.98697305225 0.98928336222 0.99163626538 0.99404078249
          0.99648799776 0.0018652817716 0.0026899870481 0.003456416365 0.0041931938317 0.0049126560856
          0.0087001827508 0.010043154732 0.011362600557 0.01278216704 0.014239887749 0.015675790727
          0.017131391412 0.17555363804 0.98584286333 0.98816379858 0.99031135189 0.99239936141
          0.9945229375 0.99664336353 0.000658914663 0.0006505732345 0.00061340108053 0.00044128720774
          0.00065059421953 0.00064395226786 0.00060978020561 0.00044009242527 0.000613367187 0.00060970891034
          0.00058539203906 0.00042815587883 0.00044143109472 0.00044002485914 0.00042796221571 0.00033171449105
          0.0018389046524 0.0026888406071 0.0034741177633 0.0042253661343 0.0049582835705 0.0091780014631
          0.010370493559 0.011683108264 0.013038591543 0.01441120245 0.015784256769 0.01715843569
          0.27755761188 0.98587657208 0.98796533689 0.99005483479 0.99214334939 0.99423506127
          0.9963514905 0.0017865474322 0.0025946803941 0.0033504075246 0.004081624889 0.0047999897293
          0.0084482808367 0.0098101714544 0.011204779833 0.012601027705 0.013997036147 0.015384549678
          0.016732658469 0.034667238216 0.98484535983 0.98742403134 0.98958478279 0.99176465379
          0.99397296227 0.99621889676 0.0016979752541 0.0024860561186 0.0032295762563 0.0039521377661
          0.0046622937333 0.0075653919915 0.0093268557669 0.010806134724 0.012173367576 0.013501263891
          0.014882336844 0.016228525989 0.021395554934 0.98192450162 0.9868101624 0.98899164237
          0.99120306472 0.99347374605 0.99585317463 0.0016101311733 0.0024102943426 0.0031644065804
          0.0038937159894 0.0046079090067 0.0066746156152 0.0092299978704 0.010662191034 0.012247990368
          0.013739285365 0.015080712936 0.016447493323 0.038605416279 0.98455713502 0.98751990054
          0.98970338215 0.9919046411 0.99414820015 0.99647486113 0.0015204342383 0.0023083775283
          0.0030595688074 0.0037896141645 0.0045061777976 0.0060685821757 0.0090234019249 0.010441786786
          0.011854185223 0.013293136535 0.014717636924 0.016127562285 0.020954305526 0.97876795945
          0.98676999718 0.98893975789 0.99112224775 0.99333969944 0.99563948112 0.00162494796
          0.002368042201 0.0030860355046 0.003794257909 0.0044960079046 0.0063209354795 0.0089022627976
          0.010369837581 0.011788604588 0.013205234104 0.014671932277 0.01613522253 0.030031149562
          0.98179372487 0.98703277433 0.98924398782 0.99147350466 0.99373571089 0.996054587
          0.001640826729 0.0024099114702 0.0031307650092 0.0038318349583 0.0045238944341 0.0064532435925
          0.0088956015596 0.010332726582 0.011693056639 0.012978071481 0.014350027313 0.015785960613
          0.020262271962 0.97896259319 0.98666711437 0.98890514273 0.99117390797 0.99348770644
          0.99585432992 0.0015229471117 0.0023012965539 0.003029151546 0.0037314003489 0.0044208179226
          0.0058427385531 0.0087069789903 0.010110183982 0.011608401179 0.013058413274 0.014397242493
          0.01575124887 0.020289977571 0.9805941608 0.98659759136 0.98887067345 0.99119043004
          0.9935857682 0.9961025373 0.0016905671817 0.0024967969946 0.0032573544443 0.0039932339457
          0.0047133386424 0.0072091527797 0.0094508475213 0.010876616059 0.01232461394 0.013790345767
          0.015233485756 0.016656484546 0.04590991392 0.98454252409 0.98745025806 0.9893100788
          0.99132463371 0.99368118135 0.99623979726 0.0016577146423 0.0024356826203 0.0031722138494
          0.0038904207543 0.0045985758053 0.0064852967802 0.0090101146544 0.010460106417 0.011897815388
          0.013327856684 0.014748072387 0.016160849563 0.022668814859 0.9826003979 0.98691394663
          0.98907190453 0.99130367209 0.99364382589 0.99609339209 0.0016209510623 0.0023753592872
          0.0030889073389 0.0037871905365 0.0044793904445 0.0059390712493 0.0087376784447 0.010168147317
          0.01152558008 0.01282871426 0.014209314451 0.015607725472 0.018191806686 0.97673727511
          0.98635966644 0.98859154901 0.99087691385 0.99325463686 0.99575947226 0.0014788986917
          0.0022196496123 0.0029284026806 0.0036223738347 0.0043098174624 0.005364937987 0.0085141344735
          0.0098987444341 0.011388041522 0.012870636937 0.01428991281 0.015679570007 0.019577256911
          0.98011772723 0.98652584225 0.98881188956 0.99114817606 0.99356698306 0.99610081189
          0.001839255308 0.0026904666155 0.0034768880731 0.0042290505191 0.0049628104535 0.0092205070712
          0.010397784575 0.011704289651 0.013055321232 0.014415751087 0.015777762523 0.017154792377
          0.28470889653 0.98596959054 0.98805605166 0.990125334 0.99218843888 0.99425187985
          0.99635130277 0.0017868569005 0.0025997814742 0.0033599478509 0.0040947991612 0.0048164900305
          0.0085408619199 0.0098593644926 0.011243340645 0.012625876314 0.013980691851 0.015344575261
          0.016716928646 0.042875157612 0.98506535803 0.98763120124 0.98979346648 0.99192521872
          0.99408059577 0.99627144632 0.0016738204796 0.0024679772124 0.0032210814746 0.0039530580007
          0.0046716826836 0.0074883195235 0.0093223691198 0.010804935814 0.012195999828 0.013504678156
          0.014889499039 0.016298751664 0.033387707612 0.9819544807 0.98696531856 0.98916612125
          0.99135634933 0.99355137555 0.99593338292 0.0013973791749 0.0022114547423 0.002985557324
          0.0037343228392 0.0044669427073 0.0057256095051 0.0090303457704 0.010405107691 0.011923134752
          0.013448935076 0.014915460169 0.016356836629 0.024068030662 0.98178118246 0.9870540868
          0.98937471838 0.99174151727 0.99360720669 0.99554335244 0.99821697539 0.99814234886
          0.99813073847 0.99776453127 0.9981423847 0.99784839162 0.99826737892 0.99769444928
          0.99792036214 0.99780097538 0.99797162073 0.99767975072 0.99761552726 0.99836142093
          0.99769685883 0.99755166492 0.0016045635276 0.0024448769712 0.0032324554817 0.0039876075783
          0.0047224922536 0.0077670679519 0.0097089626004 0.011188977643 0.012588523697 0.013978251378
          0.015365561823 0.016749069264 0.041050334477 0.98452342592 0.98731292774 0.98939875227
          0.99149268795 0.9935972619 0.99575927886 0.0015557936137 0.0023444252356 0.0030999847074
          0.0038366036585 0.0045607236169 0.0069557838146 0.0091309028871 0.010677489426 0.012135603711
          0.01355372249 0.014959126439 0.016363000546 0.022380864921 0.98228005276 0.98694763748
          0.98910470119 0.99124122429 0.9933966334 0.99560889683 0.0014877840524 0.0022627922256
          0.0030065332617 0.003734928732 0.0044547767441 0.0060489963902 0.0088300115897 0.010290516334
          0.01168951577 0.013016619602 0.014398556514 0.01580075208 0.018145696087 0.96255656383
          0.98636699028 0.988654923 0.99097140619 0.99318320575 0.99549474422 0.0012831305097
          0.0020652528177 0.0028211334765 0.003559413328 0.0042863269781 0.0052100160091 0.0086076694466
          0.0099762619338 0.011472633873 0.012975144096 0.014415712023 0.015842769993 0.018465623412
          0.93914249085 0.98632706457 0.98830605889 0.9903965865 0.99260880731 0.99496125253
          0.0015543102096 0.0023406565833 0.0030951155419 0.0038311230536 0.0045546422201 0.006840260117
          0.0090960492585 0.010639185802 0.012102002815 0.013547326596 0.014972919893 0.016366680928
          0.022052806296 0.98200341113 0.98676627291 0.98890303902 0.99106803144 0.99326894981
          0.99555471643 0.0015045947008 0.0022337948768 0.0029533189844 0.0036709264538 0.0043864724133
          0.0059368607173 0.0086268041646 0.010146009005 0.011644561816 0.013129635917 0.014587887221
          0.016015834614 0.01933272261 0.97822255657 0.98642660239 0.98842268704 0.99050086031
          0.99272766595 0.99506642623 0.0014089127759 0.0020879089253 0.0027853168734 0.0034878789663
          0.0041924252219 0.005331031955 0.0084103189843 0.0098670523888 0.011325306604 0.01277532056
          0.014203649661 0.015620906206 0.017555320732 0.94687638794 0.98623766961 0.98855947833
          0.99092280852 0.99320077566 0.99559593976 0.0013149738001 0.0020889416919 0.0028162791807
          0.0035289063156 0.004235569667 0.0050096787143 0.0082881286207 0.0096537390827 0.011035279589
          0.012427938481 0.013815148258 0.015207389918 0.016606025862 0.75925228515 0.98553444814
          0.98784765004 0.9900718158 0.99235106509 0.99477563006 0.001472792374 0.0022349429233
          0.0029720155797 0.0036962778577 0.0044128323306 0.0058712418142 0.008797311337 0.010238210917
          0.011685664548 0.01313639582 0.014537659755 0.015830373684 0.017951951984 0.96813807254
          0.98621744471 0.9883672918 0.99055410464 0.99280151833 0.99517123755 0.0014123201809
          0.0020888580839 0.0027926989783 0.00349996697 0.0042071390413 0.0051642777338 0.0083481621127
          0.0097580405249 0.011193739424 0.012725675221 0.01418099801 0.015520069657 0.017141828234
          0.9153666413 0.98592338399 0.98806609293 0.99025090497 0.99251703543 0.9949188914
          0.0013696423149 0.0020386866316 0.0027214812638 0.0034101537613 0.0041020476492 0.0049078444065
          0.0081756254811 0.0095650742636 0.010964213206 0.012465855276 0.013928791486 0.015340910417
          0.016758887755 0.89805046615 0.98588163178 0.98807160988 0.99030383706 0.99261666833
          0.99508863987 0.0012205238283 0.0019410356851 0.0026376281362 0.003327510388 0.0040151913183
          0.0047132336335 0.0079715029031 0.0094241637062 0.010799514388 0.012173840344 0.013559463456
          0.014942857508 0.016330335385 0.60926719992 0.98525480764 0.98760960708 0.98987017028
          0.99219771866 0.99468613112 0.0012689281272 0.0020367485215 0.0027793322633 0.0035069564752
          0.0042252534797 0.0051088284171 0.0085387833357 0.009904092913 0.011305452885 0.012732449082
          0.01410460637 0.015416435261 0.016814728061 0.78280279876 0.98581669631 0.98797028352
          0.99014167338 0.99237079241 0.9947281858 0.0012054036975 0.0019037200992 0.0026185809545
          0.0033290676927 0.0040343325897 0.0047651944948 0.0080747525108 0.0095217585338 0.010905272673
          0.01238386904 0.014095012077 0.015751387284 0.019325505322 0.978337403 0.986555163
          0.98876240335 0.99100305105 0.99330857382 0.99572675985 0.001384995245 0.0022139288671
          0.002947373307 0.0036534973182 0.0043493448783 0.005546119624 0.0085772711639 0.0099852722364
          0.011400839317 0.012626534326 0.013712554274 0.015035952521 0.01643138351 0.67728882458
          0.98543080781 0.98772240535 0.98995692721 0.99227126629 0.99473657838 0.0011288942309
          0.0018689978509 0.0025871046874 0.0032864671393 0.0039752838643 0.0046628765647 0.0078585300131
          0.0093524003921 0.010727174358 0.012111089976 0.01349187704 0.014836326537 0.016217509707
          0.51448296305 0.98505925919 0.9873892559 0.98965281062 0.99199205689 0.99448339683
        </DataArray>
        <DataArray type="Float64" Name="Phase1::RelativePermeability" format="ascii" RangeMin="1.1003450357e-07" RangeMax="0.99799838784">
          7.5300224228e-07 6.9960391709e-07 6.8685914566e-07 6.0229225856e-07 0.99798009064 0.99654191323
          0.99799838784 0.99798301887 6.3457810261e-07 6.1871993867e-07 5.6375190755e-07 4.7262442586e-07
          5.4926121279e-07 5.3220161833e-07 5.1885091381e-07 4.0808362617e-07 6.3423411984e-07 6.1646766347e-07
          5.4326608114e-07 2.7626243264e-07 3.9489995043e-07 5.3198318449e-07 5.1862094032e-07 4.0771049921e-07
          0.99739434584 0.99732177084 0.99686562435 0.99798763105 0.99640340971 0.99716894304
          0.99680168423 0.99741493876 0.99741555458 0.99682014173 0.99732544385 0.99739795633
          0.9960726572 0.99731282795 0.99732107171 0.99739395448 4.0042534219e-06 8.2763016112e-06
          1.3506206219e-05 1.9665733806e-05 2.7328902385e-05 9.8410719292e-05 0.00011846436064 0.00014733156976
          0.00018155322272 0.00022006074518 0.00026243206449 0.00031241688339 0.3866606942 0.97320187747
          0.97726410083 0.98130553762 0.98532812862 0.98934627154 0.99341469973 3.5265270994e-06
          7.2604002253e-06 1.1898235205e-05 1.7425849858e-05 2.3850796382e-05 7.3652798837e-05 9.8600306747e-05
          0.00012699723336 0.00015698940691 0.00019142455062 0.00023947297657 0.00028736071346 0.00098938835608
          0.96293473058 0.97429540042 0.97859355692 0.98290180124 0.98724150775 0.991645051
          2.8780263512e-06 5.988957735e-06 9.9657355983e-06 1.4801365824e-05 2.0491384102e-05 4.4613012795e-05
          7.9635072557e-05 0.00010730298193 0.00013900687466 0.00017460906542 0.00021324306646 0.00025484462418
          0.00066298705277 0.96680366137 0.97411580586 0.97868157077 0.98334248282 0.98811707725
          0.99298832968 3.4792760874e-06 7.2360303187e-06 1.1946814088e-05 1.7582874511e-05 2.4134189815e-05
          7.5693179898e-05 0.00010086495697 0.00012910869141 0.00016338379424 0.00020277440312 0.0002457304149
          0.00029348457172 0.03081907983 0.97188615118 0.97646769281 0.98071657368 0.98485649253
          0.98907587322 0.99329799407 4.3416853311e-07 4.2324553345e-07 3.762608856e-07 1.9473439971e-07
          4.2327283849e-07 4.1467452328e-07 3.7183189916e-07 1.9368134278e-07 3.7621930609e-07 3.7174495535e-07
          3.426838394e-07 1.8331745657e-07 1.9486141138e-07 1.9362187666e-07 1.8315165807e-07 1.1003450357e-07
          3.3815703205e-06 7.2298638104e-06 1.2069494233e-05 1.7853718968e-05 2.4584575966e-05 8.4235710856e-05
          0.00010754713667 0.0001364950187 0.00017000486942 0.00020768275605 0.00024914276174 0.00029441191533
          0.077038227914 0.97195261537 0.97607550689 0.9802085759 0.98434842574 0.98850335706
          0.99271629262 3.1917517277e-06 6.7323663473e-06 1.1225230581e-05 1.6659661735e-05 2.3039901401e-05
          7.1373449097e-05 9.6239463964e-05 0.00012554709111 0.00015878589921 0.00019591702089 0.0002366843688
          0.00027998185944 0.0012018174055 0.96992038277 0.97500621766 0.97927804232 0.9835971285
          0.98798224972 0.99245209027 2.8831199636e-06 6.1804750249e-06 1.0430162795e-05 1.5619392922e-05
          2.1736982855e-05 5.7235155985e-05 8.6990238497e-05 0.00011677254767 0.00014819087815 0.00018228412665
          0.00022148394994 0.00026336505577 0.00045776977092 0.96417572689 0.97379429662 0.97810446867
          0.98248351552 0.98699008409 0.99172354542 2.5925223953e-06 5.8095188182e-06 1.0013469006e-05
          1.5161024206e-05 2.1232825414e-05 4.455049361e-05 8.5192860688e-05 0.00011368231765 0.00015001326805
          0.00018876796233 0.00022742790266 0.00027052003661 0.0014903781661 0.96935275212 0.97519555396
          0.97951278463 0.98387481703 0.98833064387 0.99296214886 2.311720273e-06 5.3286068132e-06
          9.3609612873e-06 1.4361175516e-05 2.0305638343e-05 3.6827689623e-05 8.1421782298e-05 0.00010903091129
          0.00014052170731 0.00017670747893 0.00021660883664 0.00026009826524 0.00043908292007 0.95798671844
          0.97371502734 0.97800184473 0.98232330999 0.98672375848 0.99129797637 2.6404558726e-06
          5.6076238659e-06 9.5236151357e-06 1.439639308e-05 2.0214087079e-05 3.9954225336e-05 7.9250282918e-05
          0.00010753353145 0.00013897119812 0.00017437820775 0.00021526559674 0.0002603454061 0.00090186994399
          0.96391891819 0.9742336976 0.97860366744 0.98301971045 0.98751066309 0.99212474029
          2.6923123545e-06 5.8076732942e-06 9.8016895427e-06 1.4682959148e-05 2.0465620851e-05 4.1644352864e-05
          7.9131727106e-05 0.00010676523861 0.00013672757357 0.00016843033937 0.00020592328388 0.00024919655247
          0.00041055966505 0.95836775887 0.97351199458 0.97793338131 0.98242571584 0.98701782284
          0.99172584643 2.3193679051e-06 5.2959658292e-06 9.1757590886e-06 1.3923348563e-05 1.9543631105e-05
          3.41375938e-05 7.5811483138e-05 0.00010221582014 0.00013475497792 0.00017052215723 0.00020728059139
          0.00024810184095 0.00041168318982 0.9615649082 0.97337480727 0.9778652088 0.98245846861
          0.98721267877 0.99222026481 2.858017396e-06 6.2339952322e-06 1.0610357976e-05 1.5945917345e-05