# vtk DataFile Version 2.0
VTK LEGACY FILE FORMAT ASCII - tetrahedral sample file for H5FED test
ASCII
DATASET UNSTRUCTURED_GRID

POINTS 9 DOUBLE
0.0 1.0 0.0
0.0 0.5 0.5
1.0 0.0 0.0
0.0 0.5 0.0
0.5 0.0 0.5
0.5 0.0 0.0
0.0 0.0 0.5
0.0 0.0 1.0
0.0 0.0 0.0

CELLS 7 35
4	0  1  2  3 
4	2  1  4  3 
4	2  3  4  5 
4	5  3  4  6 
4	3  1  4  6 
4	1  6  7  4 
4	3  8  6  5 

CELL_TYPES 7
10
10
10
10
10
10
10

CELL_DATA 7
SCALARS cell_attribute_data float 1
LOOKUP_TABLE default
0
1
2
3
4
5
6
