<VTKFile type="UnstructuredGrid" version="0.1" byte_order="LittleEndian">
  <UnstructuredGrid>
    <Piece NumberOfPoints="13" NumberOfCells="16">
      <PointData Scalars="Pressure" Vectors="Velocity">
        <DataArray type="Float64" Name="Pressure" format="ascii" RangeMin="-3.1809190354" RangeMax="1.289556294">
          0.9729585864 0.10741252297 -0.02868532916 -3.1809190354 0.6222703977 -0.51907703263
          -0.3898660085 -0.42468524734 0.17662936843 0.83503826895 -2.4982920869 1.289556294
          -0.33766036672
        </DataArray>
        <DataArray type="Float64" Name="Time" format="ascii" RangeMin="0.1" RangeMax="0.1">
          0.1 0.1 0.1 0.1 0.1 0.1
          0.1 0.1 0.1 0.1 0.1 0.1
          0.1
        </DataArray>
        <DataArray type="Float64" Name="Velocity" NumberOfComponents="3" format="ascii" RangeMin="0" RangeMax="1.6435370596">
          0 0 0 0 0 0
          0 0 0 0 0 0
          -0.32123735872 0 0 0 0 0
          0 0 0 -1.3741820345 -0.11931544447 0
          -1.1274691239 0.41102170464 0 -0.95958555638 0.15589620514 0
          -1.3043398739 0.99995577889 0 -0.34046277882 0.29869653491 0
          -0.70264654835 -0.054471191717 0
        </DataArray>
      </PointData>
      <CellData>
      </CellData>
      <Points>
        <DataArray type="Float64" Name="Points" NumberOfComponents="3" format="ascii" RangeMin="0" RangeMax="1.4142135624">
          0 0 0 1 0 0
          1 1 0 0 1 0
          0 0.5 0 0.5 1 0
          0.5 0 0 1 0.5 0
          0.5 0.5 0 0.75 0.75 0
          0.25 0.75 0 0.25 0.25 0
          0.75 0.25 0
        </DataArray>
      </Points>
      <Cells>
        <DataArray type="Int64" Name="connectivity" format="ascii" RangeMin="0" RangeMax="12">
          8 4 10 11 4 8
          8 5 9 10 5 8
          0 4 11 2 9 5
          1 12 7 7 8 9
          1 6 12 6 11 8
          7 12 8 6 8 12
          3 5 10 0 11 6
          2 7 9 3 10 4
        </DataArray>
        <DataArray type="Int64" Name="offsets" format="ascii" RangeMin="3" RangeMax="48">
          3 6 9 12 15 18
          21 24 27 30 33 36
          39 42 45 48
        </DataArray>
        <DataArray type="UInt8" Name="types" format="ascii" RangeMin="5" RangeMax="5">
          5 5 5 5 5 5
          5 5 5 5 5 5
          5 5 5 5
        </DataArray>
      </Cells>
    </Piece>
  </UnstructuredGrid>
</VTKFile>
