# vtk DataFile Version 2.0
VTK LEGACY FILE FORMAT ASCII - tetrahedral sample file for H5FED test
ASCII
DATASET UNSTRUCTURED_GRID

POINTS 8 DOUBLE
0.0 0.5 0.5
0.0 1.0 0.0
0.0 0.5 0.0
1.0 0.0 0.0
0.5 0.0 0.0
0.5 0.0 0.5
0.0 0.0 1.0
0.0 0.0 0.0

CELLS 6 30
4	0  1  2  3 
4	0  4  5  3 
4	0  2  4  3 
4	6  5  0  4 
4	6  0  2  4 
4	6  2  7  4 

CELL_TYPES 6
10
10
10
10
10
10

CELL_DATA 6
SCALARS cell_attribute_data float 1
LOOKUP_TABLE default
0
1
2
3
4
5
